  MPI-parallelism will be employed.
------------------------------------------------------------
          Invoking FHI-aims ...
          Version 171221_1
          Compiled on 2020/09/23 at 19:46:43 on host login.service.

          When using FHI-aims, please cite the following reference:

          Volker Blum, Ralf Gehrke, Felix Hanke, Paula Havu,
          Ville Havu, Xinguo Ren, Karsten Reuter, and Matthias Scheffler,
          'Ab Initio Molecular Simulations with Numeric Atom-Centered Orbitals',
          Computer Physics Communications 180, 2175-2196 (2009)

          For any questions about FHI-aims, please visit the aimsclub website
          with its forums and wiki. Contributions to both the forums and the
          wiki are warmly encouraged - they are for you, and everyone is welcome there.

------------------------------------------------------------



  Date     :  20220723, Time     :  170639.407
  Time zero on CPU 1             :   0.893520000000000E-01  s.
  Internal wall clock time zero  :           427827999.407  s.

  FHI-aims created a unique identifier for this run for later identification
  aims_uuid : 74585331-8287-49AF-AF3B-737C53D24E84

  Using       20 parallel tasks.
  Task        0 on host node043 reporting.
  Task        1 on host node043 reporting.
  Task        2 on host node043 reporting.
  Task        3 on host node043 reporting.
  Task        4 on host node043 reporting.
  Task        5 on host node043 reporting.
  Task        6 on host node043 reporting.
  Task        7 on host node043 reporting.
  Task        8 on host node043 reporting.
  Task        9 on host node043 reporting.
  Task       10 on host node043 reporting.
  Task       11 on host node043 reporting.
  Task       12 on host node043 reporting.
  Task       13 on host node043 reporting.
  Task       14 on host node043 reporting.
  Task       15 on host node043 reporting.
  Task       16 on host node043 reporting.
  Task       17 on host node043 reporting.
  Task       18 on host node043 reporting.
  Task       19 on host node043 reporting.

  Performing system and environment tests:
  *** Environment variable OMP_NUM_THREADS is not set
  *** For performance reasons you might want to set it to 1
  | Maximum stacksize for task 0: unlimited
  | Maximum stacksize for task 1: unlimited
  | Maximum stacksize for task 2: unlimited
  | Maximum stacksize for task 3: unlimited
  | Maximum stacksize for task 4: unlimited
  | Maximum stacksize for task 5: unlimited
  | Maximum stacksize for task 6: unlimited
  | Maximum stacksize for task 7: unlimited
  | Maximum stacksize for task 8: unlimited
  | Maximum stacksize for task 9: unlimited
  | Maximum stacksize for task 10: unlimited
  | Maximum stacksize for task 11: unlimited
  | Maximum stacksize for task 12: unlimited
  | Maximum stacksize for task 13: unlimited
  | Maximum stacksize for task 14: unlimited
  | Maximum stacksize for task 15: unlimited
  | Maximum stacksize for task 16: unlimited
  | Maximum stacksize for task 17: unlimited
  | Maximum stacksize for task 18: unlimited
  | Maximum stacksize for task 19: unlimited
  | Current stacksize for task 0: unlimited
  | Current stacksize for task 1: unlimited
  | Current stacksize for task 2: unlimited
  | Current stacksize for task 3: unlimited
  | Current stacksize for task 4: unlimited
  | Current stacksize for task 5: unlimited
  | Current stacksize for task 6: unlimited
  | Current stacksize for task 7: unlimited
  | Current stacksize for task 8: unlimited
  | Current stacksize for task 9: unlimited
  | Current stacksize for task 10: unlimited
  | Current stacksize for task 11: unlimited
  | Current stacksize for task 12: unlimited
  | Current stacksize for task 13: unlimited
  | Current stacksize for task 14: unlimited
  | Current stacksize for task 15: unlimited
  | Current stacksize for task 16: unlimited
  | Current stacksize for task 17: unlimited
  | Current stacksize for task 18: unlimited
  | Current stacksize for task 19: unlimited
  | Checking for scalapack...
  | Testing pdtran()...
  | All pdtran() tests passed.

  Obtaining array dimensions for all initial allocations:
  
  -----------------------------------------------------------------------
  Parsing control.in (first pass over file, find array dimensions only).
  The contents of control.in will be repeated verbatim below
  unless switched off by setting 'verbatim_writeout .false.' .
  in the first line of control.in .
  -----------------------------------------------------------------------
  
  #===============================================================================
  # FHI-aims file: ./control.in
  # Created using the Atomic Simulation Environment (ASE)
  # Wed Mar 24 12:41:28 2021
  #===============================================================================
  xc                                 pbe
  sc_accuracy_etot                   1e-06
  sc_accuracy_eev                    0.001
  sc_accuracy_rho                    1e-06
  sc_accuracy_forces                 0.0001
  friction_temperature               300  # default 300
  
    k_grid                           3  3  3
  
  
  ################################################################################
  #
  #  FHI-aims code project
  #  VB, Fritz-Haber Institut, 2009
  #
  #  Suggested "light" defaults for Li atom (to be pasted into control.in file)
  #  Be sure to double-check any results obtained with these settings for post-processing,
  #  e.g., with the "tight" defaults and larger basis sets.
  #
  ################################################################################
    species        Li
  #     global species definitions
      nucleus             3
      mass                6.941
  #
      l_hartree           4
  #
      cut_pot             3.5  1.5  1.0
      basis_dep_cutoff    1e-4
  #
      radial_base         29 5.0
      radial_multiplier   1
      angular_grids       specified
        division   0.4484  110
        division   0.5659  194
        division   0.6315  302
  #      division   0.6662  434
  #      division   0.8186  590
  #      division   0.9037  770
  #      division   6.2760  974
  #      outer_grid   974
        outer_grid   302
  ################################################################################
  #
  #  Definition of "minimal" basis
  #
  ################################################################################
  #     valence basis states
      valence      2  s   1.
  #     ion occupancy
      ion_occ      1  s   2.
  ################################################################################
  #
  #  Suggested additional basis functions. For production calculations,
  #  uncomment them one after another (the most important basis functions are
  #  listed first).
  #
  #  Constructed for dimers: 1.80 A, 2.25 A, 2.75 A, 3.50 A, 4.50 A
  #
  ################################################################################
  #  "First tier" - improvements: -189.23 meV to -6.35 meV
       hydro 2 p 1.6
       hydro 2 s 2
       hydro 3 d 2.6
  #  "Second tier" - improvements: -4.69 meV to -0.41 meV
  #     hydro 3 p 4.6
  #     hydro 2 p 1.8
  #     hydro 3 s 6.2
  #     hydro 4 d 4.7
  #     hydro 4 f 4.1
  #  "Third tier" - improvements: -0.20 meV to -0.15 meV
  #     hydro 4 d 0.95
  #     hydro 3 p 6.2
  #     hydro 3 s 1.7
  #  Further functions, listed for completeness
  #     VB: The following functions are only listed for completeness; test very
  #         carefully before any kind of production use. From the point of view
  #         of the basis construction, their main role is to fill up space,
  #         and they are solely determined by the location of the cutoff potential.
  #     hydro 3 p 0.1  # -0.15 meV
  #     hydro 4 d 5    # -0.12 meV
  #     hydro 4 f 0.1  # -0.14 meV
  #     hydro 5 g 0.1  # -0.06 meV
  
  
  ################################################################################
  #
  #  FHI-aims code project
  #  VB, Fritz-Haber Institut, 2010
  #
  #  Suggested "light" defaults for P atom (to be pasted into control.in file)
  #  Be sure to double-check any results obtained with these settings for post-processing,
  #  e.g., with the "tight" defaults and larger basis sets.
  #
  ################################################################################
    species        P
  #     global species definitions
      nucleus             15
      mass                30.973762
  #
      l_hartree           4
  #
      cut_pot             3.5          1.5  1.0
      basis_dep_cutoff    1e-4
  #
      radial_base         43 5.0
      radial_multiplier   1
      angular_grids       specified
        division   0.5527   50
        division   0.8801  110
        division   1.1447  194
        division   1.3165  302
  #      division   1.4113  434
  #      division   1.4781  590
  #      division   1.5482  770
  #      division   1.5845  974
  #      division   2.2606 1202
        outer_grid  302
  ################################################################################
  #
  #  Definition of "minimal" basis
  #
  ################################################################################
  #     valence basis states
      valence      3  s   2.
      valence      3  p   3.
  #     ion occupancy
      ion_occ      3  s   1.
      ion_occ      3  p   2.
  ################################################################################
  #
  #  Suggested additional basis functions. For production calculations,
  #  uncomment them one after another (the most important basis functions are
  #  listed first).
  #
  #  Constructed for dimers: 1.625 A, 1.875 A, 2.5 A, 3.25 A, 4.0 A
  #
  ################################################################################
  #  "First tier" - improvements: -726.20 meV to -35.91 meV
       ionic 3 d auto
       ionic 3 p auto
  #     hydro 4 f 6.2
  #     hydro 5 g 8.6
       ionic 3 s auto
  #  "Second tier" - improvements: -16.02 meV to -1.71 meV
  #     hydro 4 d 6.2
  #     hydro 4 p 9.2
  #     hydro 5 f 9.8
  #     hydro 1 s 0.7
  #     hydro 5 g 13.2
  #  "Third tier" - improvements: -1.82 meV to -0.20 meV
  #     hydro 3 p 2.5
  #     hydro 4 d 6.4
  #     hydro 5 f 11.2
  #     hydro 2 s 1.5
  #  "Fourth tier" - improvements: -0.91 meV to -0.17 meV
  #     hydro 3 d 16.8
  #     hydro 5 g 18
  #     hydro 4 p 4.5
  #     hydro 3 s 2.1
  #  Further basis functions that fell out of the optimization - < -0.09 meV
  #     hydro 4 p 10.4
  #     hydro 4 d 17.6
  #     hydro 4 s 11.2
  ################################################################################
  #
  #  FHI-aims code project
  #  VB, Fritz-Haber Institut, 2009
  #
  #  Suggested "light" defaults for S atom (to be pasted into control.in file)
  #  Be sure to double-check any results obtained with these settings for post-processing,
  #  e.g., with the "tight" defaults and larger basis sets.
  #
  ################################################################################
    species        S
  #     global species definitions
      nucleus             16
      mass                32.065
  #
      l_hartree           4
  #
      cut_pot             3.5          1.5  1.0
      basis_dep_cutoff    1e-4
  #
      radial_base         44 5.0
      radial_multiplier   1
      angular_grids       specified
        division   0.4665  110
        division   0.5810  194
        division   0.7139  302
  #      division   0.8274  434
  #      division   0.9105  590
  #      division   1.0975  770
  #      division   1.2028  974
  #      outer_grid  974
        outer_grid  302
  ################################################################################
  #
  #  Definition of "minimal" basis
  #
  ################################################################################
  #     valence basis states
      valence      3  s   2.
      valence      3  p   4.
  #     ion occupancy
      ion_occ      3  s   1.
      ion_occ      3  p   3.
  ################################################################################
  #
  #  Suggested additional basis functions. For production calculations,
  #  uncomment them one after another (the most important basis functions are
  #  listed first).
  #
  #  Constructed for dimers: 1.6 A, 1.9 A, 2.5 A, 3.25 A, 4.0 A
  #
  ################################################################################
  #  "First tier" - improvements: -652.81 meV to -45.53 meV
       ionic 3 d auto
       hydro 2 p 1.8
  #     hydro 4 f 7
       ionic 3 s auto
  #  "Second tier" - improvements: -30.20 meV to -1.74 meV
  #     hydro 4 d 6.2
  #     hydro 5 g 10.8
  #     hydro 4 p 4.9
  #     hydro 5 f 10
  #     hydro 1 s 0.8
  #  "Third tier" - improvements: -1.04 meV to -0.20 meV
  #     hydro 3 d 3.9
  #     hydro 3 d 2.7
  #     hydro 5 g 12
  #     hydro 4 p 10.4
  #     hydro 5 f 12.4
  #     hydro 2 s 1.9
  #  "Fourth tier" - improvements: -0.35 meV to -0.06 meV
  #     hydro 4 d 10.4
  #     hydro 4 p 7.2
  #     hydro 4 d 10
  #     hydro 5 g 19.2
  #     hydro 4 s 12
  
  ################################################################################
  #
  #  FHI-aims code project
  #  VB, Fritz-Haber Institut, 2009
  #
  #  Suggested "light" defaults for Cl atom (to be pasted into control.in file)
  #  Be sure to double-check any results obtained with these settings for post-processing,
  #  e.g., with the "tight" defaults and larger basis sets.
  #
  ################################################################################
    species        Cl
  #     global species definitions
      nucleus             17
      mass                35.453
  #
      l_hartree           4
  #
      cut_pot             3.5          1.5  1.0
      basis_dep_cutoff    1e-4
  #
      radial_base         45 5.0
      radial_multiplier   1
      angular_grids       specified
        division   0.4412  110
        division   0.5489  194
        division   0.6734  302
  #      division   0.7794  434
  #      division   0.9402  590
  #      division   1.0779  770
  #      division   1.1792  974
  #      outer_grid  974
        outer_grid  302
  ################################################################################
  #
  #  Definition of "minimal" basis
  #
  ################################################################################
  #     valence basis states
      valence      3  s   2.
      valence      3  p   5.
  #     ion occupancy
      ion_occ      3  s   1.
      ion_occ      3  p   4.
  ################################################################################
  #
  #  Suggested additional basis functions. For production calculations,
  #  uncomment them one after another (the most important basis functions are
  #  listed first).
  #
  #  Constructed for dimers: 1.65 A, 2.0 A, 2.5 A, 3.25 A, 4.0 A
  #
  ################################################################################
  #  "First tier" - improvements: -429.57 meV to -15.03 meV
       ionic 3 d auto
       hydro 2 p 1.9
  #     hydro 4 f 7.4
       ionic 3 s auto
  #     hydro 5 g 10.4
  #  "Second tier" - improvements: -7.84 meV to -0.48 meV
  #     hydro 3 d 3.3
  #     hydro 5 f 9.8
  #     hydro 1 s 0.75
  #     hydro 5 g 11.2
  #     hydro 4 p 10.4
  #  "Third tier" - improvements: -1.00 meV to -0.12 meV
  #     hydro 4 d 12.8
  #     hydro 4 f 4.6
  #     hydro 4 d 10.8
  #     hydro 2 s 1.8
  #     hydro 3 p 3
  #  Further functions that fell out - improvements: -0.10 meV and below
  #     hydro 5 f 14.4
  #     hydro 4 s 12.8
  #     hydro 3 d 11.6
  #     hydro 4 s 4.1
  
  -----------------------------------------------------------------------
  Completed first pass over input file control.in .
  -----------------------------------------------------------------------
  
  
  -----------------------------------------------------------------------
  Parsing geometry.in (first pass over file, find array dimensions only).
  The contents of geometry.in will be repeated verbatim below
  unless switched off by setting 'verbatim_writeout .false.' .
  in the first line of geometry.in .
  -----------------------------------------------------------------------
  
  #=======================================================
  # FHI-aims file: geometry.in.5
  # Created using the Atomic Simulation Environment (ASE)
  # Sat Jul 23 22:56:02 2022
  #=======================================================
  lattice_vector 9.8979997634999997 0.0000000000000000 0.0000000000000000
  lattice_vector 0.0000000000000000 9.8979997634999997 0.0000000000000000
  lattice_vector 0.0000000000000000 0.0000000000000000 9.8979997634999997
  atom 2.9608716700000000 0.0614419400000000 6.9342420499999999 Li
  atom 3.8347711300000000 0.0602912000000000 2.6380237300000000 Li
  atom 6.9252792200000002 3.2305250600000002 0.4467753500000000 Li
  atom 6.6907727899999996 6.7605143099999996 -0.1554424600000000 Li
  atom 0.3638769700000000 6.5477284400000002 2.9523789900000001 Li
  atom 9.4276234100000007 6.5706258300000000 7.0132279400000002 Li
  atom 0.0583262900000000 2.7603992000000002 6.4372430999999999 Li
  atom 3.5195560100000001 6.5109012799999997 3.7855725800000002 Li
  atom 6.6467516499999997 8.1102380000000007 4.9791029000000000 Li
  atom 5.2806771100000001 2.3168901599999998 2.6760071499999998 Li
  atom 1.4929293800000001 8.7853880199999992 3.5967402100000001 Li
  atom 0.5041268500000000 2.2871155700000001 2.2307772400000001 Li
  atom 7.6343538799999999 -0.2054672200000000 1.5696593999999999 Li
  atom 8.2843557299999997 10.0593720799999993 7.9626284900000002 Li
  atom 2.2845110300000000 8.3894190200000001 7.2457009000000001 Li
  atom 5.7838483199999997 5.8187602099999998 7.4614072299999998 Li
  atom 8.0966627800000008 5.3421440999999996 4.3891624900000004 Li
  atom -0.0008743100000000 8.8555128900000000 2.4247213099999998 Li
  atom 1.5548009000000000 2.0313280100000002 9.5753190799999999 Li
  atom 4.8014128500000002 7.1807706099999997 4.9958176099999996 Li
  atom 0.0081609400000000 -0.0117910800000000 4.9183067100000004 P
  atom 4.8929847700000000 0.0604535500000000 -0.1340192100000000 P
  atom 0.0510094800000000 4.9893822999999999 0.0778722500000000 P
  atom 5.0572051599999996 4.8714473600000003 4.8181855200000001 P
  atom 1.1506171900000000 8.6423898000000001 6.1007710299999998 S
  atom 8.5965499100000002 1.1064078399999999 6.0562356599999996 S
  atom 8.7270295299999994 8.6827929800000003 3.7217594799999998 S
  atom 1.2663170600000000 1.2297058400000000 3.8762679599999998 S
  atom 6.0772003500000000 1.2928268100000000 8.5947161600000008 S
  atom 6.0123846099999998 8.7370763300000007 1.0684056000000000 S
  atom 3.6762799500000001 8.7763089999999995 8.5710134799999995 S
  atom 3.6969616500000000 1.2906963800000000 0.9734614900000000 S
  atom 8.7234750499999993 5.9582073900000001 1.4445069200000000 S
  atom 1.0654511799999999 6.3104565099999999 8.8024172800000002 S
  atom 8.7537265499999997 3.7811655000000002 8.8385333399999997 S
  atom 1.4207658599999999 3.8797812999999999 1.1628748400000000 S
  atom 6.0818337600000003 6.2506537399999997 3.7186957999999999 S
  atom 6.3250500100000000 3.7921890700000001 6.0115254000000000 S
  atom 4.0858136099999998 3.6118473199999999 3.5268009100000000 S
  atom 3.6289256399999998 5.7602658299999998 6.0479883399999999 S
  atom 2.3668205900000001 2.4936749499999999 7.2540696999999996 Cl
  atom 7.3134333600000003 7.5393838000000004 7.4843314599999999 Cl
  atom 4.7367071799999998 -0.2327336200000000 4.8929528400000004 Cl
  atom 5.1615237900000004 5.0305814000000000 -0.2583427600000000 Cl
  atom -0.0497286300000000 0.2602403500000000 0.1663799400000000 Cl
  atom 0.0300422700000000 4.9570735299999997 5.0233017999999996 Cl
  atom 7.5963873000000000 2.3519079600000001 2.4720184900000000 Cl
  atom 2.4716053100000002 7.5248888599999999 2.4620893100000001 Cl
  
  -----------------------------------------------------------------------
  Completed first pass over input file geometry.in .
  -----------------------------------------------------------------------
  

  Basic array size parameters:
  | Number of species                 :        4
  | Number of atoms                   :       48
  | Number of lattice vectors         :        3
  | Max. basis fn. angular momentum   :        2
  | Max. atomic/ionic basis occupied n:        3
  | Max. number of basis fn. types    :        3
  | Max. radial fns per species/type  :        5
  | Max. logarithmic grid size        :     1362
  | Max. radial integration grid size :       45
  | Max. angular integration grid size:      302
  | Max. angular grid division number :        8
  | Radial grid for Hartree potential :     1362
  | Number of spin channels           :        1

------------------------------------------------------------
          Reading file control.in.
------------------------------------------------------------
  XC: Using PBE gradient-corrected functionals.
  Convergence accuracy of total energy:  0.1000E-05
  Convergence accuracy of sum of eigenvalues:  0.1000E-02
  Convergence accuracy of self-consistent charge density:  0.1000E-05
  Convergence accuracy of forces:  0.1000E-03
  Friction is calculated at temperature of   0.3000E+03 K
  Found k-point grid:         3         3         3
 
  Reading configuration options for species Li                  .
  | Found nuclear charge :   3.0000
  | Found atomic mass :    6.94100000000000      amu
  | Found l_max for Hartree potential  :   4
  | Found cutoff potl. onset [A], width [A], scale factor :    3.50000    1.50000    1.00000
  | Threshold for basis-dependent cutoff potential is   0.100000E-03
  | Found data for basic radial integration grid :    29 points, outermost radius =    5.000 A
  | Found multiplier for basic radial grid :   1
  | Found angular grid specification: user-specified.
  | Specified grid contains     4 separate shells.
  | Check grid settings after all constraints further below.
  | Found free-atom valence shell :  2 s   1.000
  | Found free-ion valence shell :  1 s   2.000
  | Found hydrogenic basis function :  2 p   1.600
  | Found hydrogenic basis function :  2 s   2.000
  | Found hydrogenic basis function :  3 d   2.600
  Species Li                  : Missing cutoff potential type.
  Defaulting to exp(1/x)/(1-x)^2 type cutoff potential.
  Species Li: No 'logarithmic' tag. Using default grid for free atom:
  | Default logarithmic grid data [bohr] : 0.1000E-03 0.1000E+03 0.1012E+01
  Species Li: On-site basis accuracy parameter (for Gram-Schmidt orthonormalisation) not specified.
  Using default value basis_acc =  0.1000000E-03.
  Species Li                  : Using default innermost maximum threshold i_radial=  2 for radial functions.
  Species Li                  : Default cutoff onset for free atom density etc. : 0.35000000E+01 AA.
  Species Li                  : Basic radial grid will be enhanced according to radial_multiplier =   1, to contain    29 grid points.
 
  Reading configuration options for species P                   .
  | Found nuclear charge :  15.0000
  | Found atomic mass :    30.9737620000000      amu
  | Found l_max for Hartree potential  :   4
  | Found cutoff potl. onset [A], width [A], scale factor :    3.50000    1.50000    1.00000
  | Threshold for basis-dependent cutoff potential is   0.100000E-03
  | Found data for basic radial integration grid :    43 points, outermost radius =    5.000 A
  | Found multiplier for basic radial grid :   1
  | Found angular grid specification: user-specified.
  | Specified grid contains     5 separate shells.
  | Check grid settings after all constraints further below.
  | Found free-atom valence shell :  3 s   2.000
  | Found free-atom valence shell :  3 p   3.000
  | Found free-ion valence shell :  3 s   1.000
  | Found free-ion valence shell :  3 p   2.000
  | Found ionic basis function :  3 d , default cutoff radius.
  | Found ionic basis function :  3 p , default cutoff radius.
  | Found ionic basis function :  3 s , default cutoff radius.
  Species P                   : Missing cutoff potential type.
  Defaulting to exp(1/x)/(1-x)^2 type cutoff potential.
  Species P : No 'logarithmic' tag. Using default grid for free atom:
  | Default logarithmic grid data [bohr] : 0.1000E-03 0.1000E+03 0.1012E+01
  | Will include ionic basis functions of  2.0-fold positive P                    ion.
  Species P : On-site basis accuracy parameter (for Gram-Schmidt orthonormalisation) not specified.
  Using default value basis_acc =  0.1000000E-03.
  Species P                   : Using default innermost maximum threshold i_radial=  2 for radial functions.
  Species P                   : Default cutoff onset for free atom density etc. : 0.35000000E+01 AA.
  Species P                   : Basic radial grid will be enhanced according to radial_multiplier =   1, to contain    43 grid points.
 
  Reading configuration options for species S                   .
  | Found nuclear charge :  16.0000
  | Found atomic mass :    32.0650000000000      amu
  | Found l_max for Hartree potential  :   4
  | Found cutoff potl. onset [A], width [A], scale factor :    3.50000    1.50000    1.00000
  | Threshold for basis-dependent cutoff potential is   0.100000E-03
  | Found data for basic radial integration grid :    44 points, outermost radius =    5.000 A
  | Found multiplier for basic radial grid :   1
  | Found angular grid specification: user-specified.
  | Specified grid contains     4 separate shells.
  | Check grid settings after all constraints further below.
  | Found free-atom valence shell :  3 s   2.000
  | Found free-atom valence shell :  3 p   4.000
  | Found free-ion valence shell :  3 s   1.000
  | Found free-ion valence shell :  3 p   3.000
  | Found ionic basis function :  3 d , default cutoff radius.
  | Found hydrogenic basis function :  2 p   1.800
  | Found ionic basis function :  3 s , default cutoff radius.
  Species S                   : Missing cutoff potential type.
  Defaulting to exp(1/x)/(1-x)^2 type cutoff potential.
  Species S : No 'logarithmic' tag. Using default grid for free atom:
  | Default logarithmic grid data [bohr] : 0.1000E-03 0.1000E+03 0.1012E+01
  | Will include ionic basis functions of  2.0-fold positive S                    ion.
  Species S : On-site basis accuracy parameter (for Gram-Schmidt orthonormalisation) not specified.
  Using default value basis_acc =  0.1000000E-03.
  Species S                   : Using default innermost maximum threshold i_radial=  2 for radial functions.
  Species S                   : Default cutoff onset for free atom density etc. : 0.35000000E+01 AA.
  Species S                   : Basic radial grid will be enhanced according to radial_multiplier =   1, to contain    44 grid points.
 
  Reading configuration options for species Cl                  .
  | Found nuclear charge :  17.0000
  | Found atomic mass :    35.4530000000000      amu
  | Found l_max for Hartree potential  :   4
  | Found cutoff potl. onset [A], width [A], scale factor :    3.50000    1.50000    1.00000
  | Threshold for basis-dependent cutoff potential is   0.100000E-03
  | Found data for basic radial integration grid :    45 points, outermost radius =    5.000 A
  | Found multiplier for basic radial grid :   1
  | Found angular grid specification: user-specified.
  | Specified grid contains     4 separate shells.
  | Check grid settings after all constraints further below.
  | Found free-atom valence shell :  3 s   2.000
  | Found free-atom valence shell :  3 p   5.000
  | Found free-ion valence shell :  3 s   1.000
  | Found free-ion valence shell :  3 p   4.000
  | Found ionic basis function :  3 d , default cutoff radius.
  | Found hydrogenic basis function :  2 p   1.900
  | Found ionic basis function :  3 s , default cutoff radius.
  Species Cl                  : Missing cutoff potential type.
  Defaulting to exp(1/x)/(1-x)^2 type cutoff potential.
  Species Cl: No 'logarithmic' tag. Using default grid for free atom:
  | Default logarithmic grid data [bohr] : 0.1000E-03 0.1000E+03 0.1012E+01
  | Will include ionic basis functions of  2.0-fold positive Cl                   ion.
  Species Cl: On-site basis accuracy parameter (for Gram-Schmidt orthonormalisation) not specified.
  Using default value basis_acc =  0.1000000E-03.
  Species Cl                  : Using default innermost maximum threshold i_radial=  2 for radial functions.
  Species Cl                  : Default cutoff onset for free atom density etc. : 0.35000000E+01 AA.
  Species Cl                  : Basic radial grid will be enhanced according to radial_multiplier =   1, to contain    45 grid points.
 
  Finished reading input file 'control.in'. Consistency checks are next.
 
  MPI_IN_PLACE appears to work with this MPI implementation.
  | Keeping use_mpi_in_place .true. (see manual).
  Target number of points in a grid batch is not set. Defaulting to  100
  Method for grid partitioning is not set. Defaulting to parallel hash+maxmin partitioning.
  Batch size limit is not set. Defaulting to    200
  By default, will store active basis functions for each batch.
  If in need of memory, prune_basis_once .false. can be used to disable this option.
  communication_type for Hartree potential was not specified.
  Defaulting to calc_hartree .
  Defaulting to Pulay charge density mixer.
  Pulay mixer: Number of relevant iterations not set.
  Defaulting to    8 iterations.
  Pulay mixer: Number of initial linear mixing iterations not set.
  Defaulting to    0 iterations.
  Work space size for distributed Hartree potential not set.
  Defaulting to   0.200000E+03 MB.
  Mixing parameter for charge density mixing has not been set.
  Using default: charge_mix_param =     0.0500.
  The mixing parameter will be adjusted in iteration number     2 of the first full s.c.f. cycle only.
  Algorithm-dependent basis array size parameters:
  | n_max_pulay                         :        8
  Maximum number of self-consistency iterations not provided.
  Presetting  1000 iterations.
  Presetting      1001 iterations before the initial mixing cycle
  is restarted anyway using the sc_init_iter criterion / keyword.
  Presetting a factor      1.000 between actual scf density residual
  and density convergence criterion sc_accuracy_rho below which sc_init_iter
  takes no effect.
  Geometry relaxation not requested: no relaxation will be performed.
  Handling of forces: Unphysical translation and rotation will be removed from forces.
  No accuracy limit for integral partition fn. given. Defaulting to  0.1000E-14.
  No threshold value for u(r) in integrations given. Defaulting to  0.1000E-05.
  No occupation type (smearing scheme) given. Defaulting to Gaussian broadening, width =  0.1000E-01 eV.
  The width will be adjusted in iteration number     2 of the first full s.c.f. cycle only.
  S.C.F. convergence parameters will be adjusted in iteration number     2 of the first full s.c.f. cycle only.
  No accuracy for occupation numbers given. Defaulting to  0.1000E-12.
  No threshold value for occupation numbers given. Defaulting to  0.0000E+00.
  No accuracy for fermi level given. Defaulting to  0.1000E-19.
  Maximum # of iterations to find E_F not set. Defaulting to  200.
  Preferred method for the eigenvalue solver ('KS_method') not specified in 'control.in'.
  Defaulting to serial version, 'lapack_fast', since more k-points than CPUs available.
  Will not use alltoall communication since running on < 1024 CPUs.
  Threshold for basis singularities not set.
  Default threshold for basis singularities:  0.1000E-04
  partition_type (choice of integration weights) for integrals was not specified.
  | Using a version of the partition function of Stratmann and coworkers ('stratmann_smoother').
  | At each grid point, the set of atoms used to build the partition table is smoothly restricted to
  | only those atoms whose free-atom density would be non-zero at that grid point.
  Partitioning for Hartree potential was not defined. Using partition_type for integrals.
  | Adjusted default value of keyword multip_moments_threshold to:       0.10000000E-11
  | This value may affect high angular momentum components of the Hartree potential in periodic systems.
  Spin handling was not defined in control.in. Defaulting to unpolarized case.
  Angular momentum expansion for Kerker preconditioner not set explicitly.
  | Using default value of   0
  No explicit requirement for turning off preconditioner.
  | By default, it will be turned off when the charge convergence reaches
  | sc_accuracy_rho  =   0.100000E-05
  | sc_accuracy_eev  =   0.100000E-02
  | sc_accuracy_etot =   0.100000E-05
  No special mixing parameter while Kerker preconditioner is on.
  Using default: charge_mix_param =     0.0500.
  No q(lm)/r^(l+1) cutoff set for long-range Hartree potential.
  | Using default value of  0.100000E-09 .
  | Verify using the multipole_threshold keyword.
  Defaulting to new monopole extrapolation.
  Density update method: automatic selection selected.
  Using density matrix based charge density update.
  Using density matrix based charge density update.
  Using packed matrix style: index .
  Defaulting to use time-reversal symmetry for k-point grid.
------------------------------------------------------------


------------------------------------------------------------
          Reading geometry description geometry.in.
------------------------------------------------------------
 * Warning! You did not set the 'relativistic' flag in input file 'control.in'.
 * Since you are not attempting to treat any elements beyond Ca(Z=20), FHI-aims
 * will default to 'relativistic none'.
 * You must ensure that this is really what you want!!
 * For example, DO NOT compute total-energy differences between results from
 * different settings of the 'relativistic' flag.
  Input structure read successfully.
  The structure contains       48 atoms,  and a total of        512.000 electrons.

  Input geometry:
  | Unit cell:
  |        9.89799976        0.00000000        0.00000000
  |        0.00000000        9.89799976        0.00000000
  |        0.00000000        0.00000000        9.89799976
  | Atomic structure:
  |       Atom                x [A]            y [A]            z [A]
  |    1: Species Li            2.96087167        0.06144194        6.93424205
  |    2: Species Li            3.83477113        0.06029120        2.63802373
  |    3: Species Li            6.92527922        3.23052506        0.44677535
  |    4: Species Li            6.69077279        6.76051431       -0.15544246
  |    5: Species Li            0.36387697        6.54772844        2.95237899
  |    6: Species Li            9.42762341        6.57062583        7.01322794
  |    7: Species Li            0.05832629        2.76039920        6.43724310
  |    8: Species Li            3.51955601        6.51090128        3.78557258
  |    9: Species Li            6.64675165        8.11023800        4.97910290
  |   10: Species Li            5.28067711        2.31689016        2.67600715
  |   11: Species Li            1.49292938        8.78538802        3.59674021
  |   12: Species Li            0.50412685        2.28711557        2.23077724
  |   13: Species Li            7.63435388       -0.20546722        1.56965940
  |   14: Species Li            8.28435573       10.05937208        7.96262849
  |   15: Species Li            2.28451103        8.38941902        7.24570090
  |   16: Species Li            5.78384832        5.81876021        7.46140723
  |   17: Species Li            8.09666278        5.34214410        4.38916249
  |   18: Species Li           -0.00087431        8.85551289        2.42472131
  |   19: Species Li            1.55480090        2.03132801        9.57531908
  |   20: Species Li            4.80141285        7.18077061        4.99581761
  |   21: Species P             0.00816094       -0.01179108        4.91830671
  |   22: Species P             4.89298477        0.06045355       -0.13401921
  |   23: Species P             0.05100948        4.98938230        0.07787225
  |   24: Species P             5.05720516        4.87144736        4.81818552
  |   25: Species S             1.15061719        8.64238980        6.10077103
  |   26: Species S             8.59654991        1.10640784        6.05623566
  |   27: Species S             8.72702953        8.68279298        3.72175948
  |   28: Species S             1.26631706        1.22970584        3.87626796
  |   29: Species S             6.07720035        1.29282681        8.59471616
  |   30: Species S             6.01238461        8.73707633        1.06840560
  |   31: Species S             3.67627995        8.77630900        8.57101348
  |   32: Species S             3.69696165        1.29069638        0.97346149
  |   33: Species S             8.72347505        5.95820739        1.44450692
  |   34: Species S             1.06545118        6.31045651        8.80241728
  |   35: Species S             8.75372655        3.78116550        8.83853334
  |   36: Species S             1.42076586        3.87978130        1.16287484
  |   37: Species S             6.08183376        6.25065374        3.71869580
  |   38: Species S             6.32505001        3.79218907        6.01152540
  |   39: Species S             4.08581361        3.61184732        3.52680091
  |   40: Species S             3.62892564        5.76026583        6.04798834
  |   41: Species Cl            2.36682059        2.49367495        7.25406970
  |   42: Species Cl            7.31343336        7.53938380        7.48433146
  |   43: Species Cl            4.73670718       -0.23273362        4.89295284
  |   44: Species Cl            5.16152379        5.03058140       -0.25834276
  |   45: Species Cl           -0.04972863        0.26024035        0.16637994
  |   46: Species Cl            0.03004227        4.95707353        5.02330180
  |   47: Species Cl            7.59638730        2.35190796        2.47201849
  |   48: Species Cl            2.47160531        7.52488886        2.46208931

  Lattice parameters for 3D lattice (in Angstroms) :     9.898000    9.898000    9.898000
  Angle(s) between unit vectors (in degrees)      :    90.000000   90.000000   90.000000

  |

  | The smallest distance between any two atoms is         1.63112656 AA.
  |
  | The first atom of this pair is atom number                     15 .
  | The second atom of this pair is atom number                    25 .
  | Wigner-Seitz cell of the first atom image           0     0     0 .
  | (The Wigner-Seitz cell of the second atom is 0 0 0  by definition.)

  Symmetry information by spglib:
  | Precision set to  0.1E-04
  | Number of Operations  : 1
  | Space group           : 1
  | International         : P1
  | Schoenflies           : C1^1

  Quantities derived from the lattice vectors:
  | Reciprocal lattice vector 1:  0.634793  0.000000  0.000000
  | Reciprocal lattice vector 2:  0.000000  0.634793  0.000000
  | Reciprocal lattice vector 3:  0.000000  0.000000  0.634793
  | Unit cell volume                               :   0.969711E+03  A^3

  Range separation radius for Ewald summation (hartree_convergence_parameter):      3.90166475 bohr.

  Fractional coordinates:
                         L1                L2                L3
       atom_frac         0.29913839        0.00620751        0.70057004  Li
       atom_frac         0.38742890        0.00609125        0.26652089  Li
       atom_frac         0.69966452        0.32638161        0.04513794  Li
       atom_frac         0.67597221        0.68301823       -0.01570443  Li
       atom_frac         0.03676268        0.66152037        0.29828037  Li
       atom_frac         0.95247764        0.66383370        0.70855002  Li
       atom_frac         0.00589274        0.27888455        0.65035798  Li
       atom_frac         0.35558255        0.65779970        0.38245834  Li
       atom_frac         0.67152473        0.81938151        0.50304132  Li
       atom_frac         0.53350952        0.23407660        0.27035838  Li
       atom_frac         0.15083142        0.88759226        0.36338051  Li
       atom_frac         0.05093219        0.23106846        0.22537657  Li
       atom_frac         0.77130269       -0.02075846        0.15858350  Li
       atom_frac         0.83697271        1.01630353        0.80446845  Li
       atom_frac         0.23080532        0.84758731        0.73203688  Li
       atom_frac         0.58434517        0.58787233        0.75382980  Li
       atom_frac         0.81801000        0.53971956        0.44343934  Li
       atom_frac        -0.00008833        0.89467702        0.24497084  Li
       atom_frac         0.15708233        0.20522611        0.96739940  Li
       atom_frac         0.48508921        0.72547694        0.50473002  Li
       atom_frac         0.00082450       -0.00119126        0.49689905  P
       atom_frac         0.49434076        0.00610765       -0.01354003  P
       atom_frac         0.00515351        0.50407986        0.00786747  P
       atom_frac         0.51093203        0.49216483        0.48678376  P
       atom_frac         0.11624745        0.87314508        0.61636403  S
       atom_frac         0.86851385        0.11178095        0.61186460  S
       atom_frac         0.88169628        0.87722703        0.37601127  S
       atom_frac         0.12793666        0.12423781        0.39162134  S
       atom_frac         0.61398267        0.13061496        0.86832859  S
       atom_frac         0.60743431        0.88271131        0.10794157  S
       atom_frac         0.37141645        0.88667501        0.86593389  S
       atom_frac         0.37350593        0.13039972        0.09834931  S
       atom_frac         0.88133716        0.60196075        0.14593928  S
       atom_frac         0.10764308        0.63754866        0.88931274  S
       atom_frac         0.88439349        0.38201309        0.89296156  S
       atom_frac         0.14354070        0.39197630        0.11748584  S
       atom_frac         0.61445079        0.63150676        0.37570175  S
       atom_frac         0.63902305        0.38312681        0.60734750  S
       atom_frac         0.41279185        0.36490679        0.35631451  S
       atom_frac         0.36663222        0.58196262        0.61103137  S
       atom_frac         0.23912110        0.25193726        0.73288239  Cl
       atom_frac         0.73887993        0.76170782        0.75614585  Cl
       atom_frac         0.47855196       -0.02351320        0.49433754  Cl
       atom_frac         0.52147140        0.50824222       -0.02610050  Cl
       atom_frac        -0.00502411        0.02629222        0.01680945  Cl
       atom_frac         0.00303519        0.50081568        0.50750676  Cl
       atom_frac         0.76746691        0.23761447        0.24974930  Cl
       atom_frac         0.24970755        0.76024339        0.24874615  Cl

  Number of empty states per atom not set in control.in - providing a guess from actual geometry.
  | Total number of empty states used during s.c.f. cycle:      114
  If you use a very high smearing, use empty_states (per atom!) in control.in to increase this value.

  Structure-dependent array size parameters: 
  | Maximum number of distinct radial functions  :       29
  | Maximum number of basis functions            :      724
  | Number of Kohn-Sham states (occupied + empty):      370
------------------------------------------------------------

------------------------------------------------------------
          Preparing all fixed parts of the calculation.
------------------------------------------------------------
  Determining machine precision:
    2.225073858507201E-308
  Setting up grids for atomic and cluster calculations.

  Creating wave function, potential, and density for free atoms.

  Species: Li

  List of occupied orbitals and eigenvalues:
    n    l              occ      energy [Ha]    energy [eV]
    1    0           2.0000        -1.876896       -51.0729
    2    0           1.0000        -0.084105        -2.2886


  Species: P

  List of occupied orbitals and eigenvalues:
    n    l              occ      energy [Ha]    energy [eV]
    1    0           2.0000       -76.351489     -2077.6297
    2    0           2.0000        -6.353717      -172.8934
    3    0           2.0000        -0.506059       -13.7706
    2    1           6.0000        -4.569386      -124.3393
    3    1           3.0000        -0.198107        -5.3908


  Species: S

  List of occupied orbitals and eigenvalues:
    n    l              occ      energy [Ha]    energy [eV]
    1    0           2.0000       -88.105825     -2397.4815
    2    0           2.0000        -7.730144      -210.3479
    3    0           2.0000        -0.627748       -17.0819
    2    1           6.0000        -5.747971      -156.4103
    3    1           4.0000        -0.255786        -6.9603


  Species: Cl

  List of occupied orbitals and eigenvalues:
    n    l              occ      energy [Ha]    energy [eV]
    1    0           2.0000      -100.709620     -2740.4482
    2    0           2.0000        -9.221874      -250.9399
    3    0           2.0000        -0.753366       -20.5001
    2    1           6.0000        -7.038743      -191.5339
    3    1           5.0000        -0.315359        -8.5813

  Creating fixed part of basis set: Ionic, confined, hydrogenic.
 
  Li                   hydrogenic:
 
  List of hydrogenic basis orbitals: 
    n    l      effective z      eigenvalue [eV]  inner max. [A]     outer max. [A]     outer radius [A]   
    2    1         1.600000        -8.6069           1.303334           1.303334           4.591005
    2    0         2.000000       -13.5631           0.203259           1.385485           4.591005
    3    2         2.600000        -9.9241           1.769240           1.769240           4.591005
 
 
  P                    ion:

  List of free ionic orbitals and eigenvalues:
    n    l      energy [Ha]    energy [eV]
    1    0       -77.297133     -2103.3620
    2    0        -7.273914      -197.9333
    3    0        -1.267536       -34.4914
    2    1        -5.491316      -149.4263
    3    1        -0.913470       -24.8568


  List of ionic basis orbitals and eigenvalues:
    n    l      energy [Ha]    energy [eV]    outer radius [A]
    3    2        -0.457308       -12.4440       4.554583
    3    1        -0.913443       -24.8560       4.337222
    3    0        -1.267519       -34.4910       3.885335

 
  S                    ion:

  List of free ionic orbitals and eigenvalues:
    n    l      energy [Ha]    energy [eV]
    1    0       -89.127201     -2425.2745
    2    0        -8.724378      -237.4024
    3    0        -1.464668       -39.8556
    2    1        -6.744348      -183.5230
    3    1        -1.048520       -28.5317


  List of ionic basis orbitals and eigenvalues:
    n    l      energy [Ha]    energy [eV]    outer radius [A]
    3    2        -0.496135       -13.5005       4.539062
    3    0        -1.464653       -39.8552       3.642502

 
  S                    hydrogenic:
 
  List of hydrogenic basis orbitals: 
    n    l      effective z      eigenvalue [eV]  inner max. [A]     outer max. [A]     outer radius [A]   
    2    1         1.800000       -10.9749           1.168531           1.168531           4.594893
 
 
  Cl                   ion:

  List of free ionic orbitals and eigenvalues:
    n    l      energy [Ha]    energy [eV]
    1    0      -101.807232     -2770.3157
    2    0       -10.290876      -280.0290
    3    0        -1.664625       -45.2967
    2    1        -8.110237      -220.6908
    3    1        -1.183915       -32.2160


  List of ionic basis orbitals and eigenvalues:
    n    l      energy [Ha]    energy [eV]    outer radius [A]
    3    2        -0.529186       -14.3999       4.541334
    3    0        -1.664610       -45.2963       3.428237

 
  Cl                   hydrogenic:
 
  List of hydrogenic basis orbitals: 
    n    l      effective z      eigenvalue [eV]  inner max. [A]     outer max. [A]     outer radius [A]   
    2    1         1.900000       -12.2492           1.113321           1.113321           4.597192
 

  Adding cutoff potential to free-atom effective potential.
  Creating atomic-like basis functions for current effective potential.

  Species Li                  :

  List of atomic basis orbitals and eigenvalues:
    n    l      energy [Ha]    energy [eV]    outer radius [A]
    1    0        -1.876896       -51.0729       4.062706
    2    0        -0.084105        -2.2886       4.591005


  Species P                   :

  List of atomic basis orbitals and eigenvalues:
    n    l      energy [Ha]    energy [eV]    outer radius [A]
    1    0       -76.351489     -2077.6297       0.736837
    2    0        -6.353717      -172.8934       2.532824
    3    0        -0.506059       -13.7706       4.499242
    2    1        -4.569386      -124.3393       2.862183
    3    1        -0.198107        -5.3908       4.554583


  Species S                   :

  List of atomic basis orbitals and eigenvalues:
    n    l      energy [Ha]    energy [eV]    outer radius [A]
    1    0       -88.105825     -2397.4815       0.682391
    2    0        -7.730144      -210.3479       2.317169
    3    0        -0.627748       -17.0819       4.483910
    2    1        -5.747971      -156.4103       2.555240
    3    1        -0.255786        -6.9603       4.539062


  Species Cl                  :

  List of atomic basis orbitals and eigenvalues:
    n    l      energy [Ha]    energy [eV]    outer radius [A]
    1    0      -100.709620     -2740.4482       0.642251
    2    0        -9.221874      -250.9399       2.128190
    3    0        -0.753366       -20.5001       4.431645
    2    1        -7.038743      -191.5339       2.346844
    3    1        -0.315359        -8.5813       4.541334

  Assembling full basis from fixed parts.
  | Species Li :   atomic orbital   1 s accepted.
  | Species Li :   atomic orbital   2 s accepted.
  | Species Li :    hydro orbital   2 s accepted.
  | Species Li :    hydro orbital   2 p accepted.
  | Species Li :    hydro orbital   3 d accepted.
  | Species P :   atomic orbital   1 s accepted.
  | Species P :   atomic orbital   2 s accepted.
  | Species P :    ionic orbital   3 s accepted.
  | Species P :   atomic orbital   3 s accepted.
  | Species P :   atomic orbital   2 p accepted.
  | Species P :    ionic orbital   3 p accepted.
  | Species P :   atomic orbital   3 p accepted.
  | Species P :    ionic orbital   3 d accepted.
  | Species S :   atomic orbital   1 s accepted.
  | Species S :   atomic orbital   2 s accepted.
  | Species S :    ionic orbital   3 s accepted.
  | Species S :   atomic orbital   3 s accepted.
  | Species S :   atomic orbital   2 p accepted.
  | Species S :   atomic orbital   3 p accepted.
  | Species S :    hydro orbital   2 p accepted.
  | Species S :    ionic orbital   3 d accepted.
  | Species Cl :   atomic orbital   1 s accepted.
  | Species Cl :   atomic orbital   2 s accepted.
  | Species Cl :    ionic orbital   3 s accepted.
  | Species Cl :   atomic orbital   3 s accepted.
  | Species Cl :   atomic orbital   2 p accepted.
  | Species Cl :   atomic orbital   3 p accepted.
  | Species Cl :    hydro orbital   2 p accepted.
  | Species Cl :    ionic orbital   3 d accepted.
 
  Basis size parameters after reduction:
  | Total number of radial functions:       29
  | Total number of basis functions :      724
 
  Per-task memory consumption for arrays in subroutine allocate_ext:
  |           7.605768MB.
  Testing on-site integration grid accuracy.
  |  Species  Function  <phi|h_atom|phi> (log., in eV)  <phi|h_atom|phi> (rad., in eV)
           1        1                -51.0729407432                -51.0729328795
           1        2                 -2.3261068990                 -2.3227046518
           1        3                 17.1966930198                 17.2358027191 ***
           1        4                  0.3867256281                  0.3982841734
           1        5                  6.2743141416                  6.2817896417
           2        6              -2077.6297159538              -2077.6288551184
           2        7               -172.8934457906               -172.8934403880
           2        8                -13.4653967551                -13.4655200798
           2        9                  6.4162845277                  6.4013396720
           2       10               -124.3393201040               -124.3393200061
           2       11                 -4.7560266034                 -4.7560495157
           2       12                  6.5873401476                  6.4958904717 ***
           2       13                  5.2911719464                  5.2826493609
           3       14              -2397.4814915323              -2397.4804563634
           3       15               -210.3479335736               -210.3479265952
           3       16                -16.8079362322                -16.8079092816
           3       17                  7.5772439785                  7.5675998324
           3       18               -156.4102581151               -156.4102580951
           3       19                 -6.9617737483                 -6.9640288036
           3       20                  7.5696988470                  7.5151244831 ***
           3       21                  6.0973034823                  6.0928113248
           4       22              -2740.4481953768              -2740.4469735573
           4       23               -250.9399497423               -250.9399403187
           4       24                -20.2462734235                -20.2462512680
           4       25                  8.9460051782                  8.9510436705
           4       26               -191.5339459398               -191.5339455009
           4       27                 -8.5819075957                 -8.5827488985
           4       28                  8.1339828089                  8.0979459360 ***
           4       29                  7.0302175114                  7.0277664253
 * Note: Onsite integrals marked "***" above are less accurate than
 * onsite_accuracy_threshold =    0.03000 eV. Usually, this is harmless.
 * When in doubt, tighten the "radial" and/or "radial_multiplier" flags to check.

  Preparing densities etc. for the partition functions (integrals / Hartree potential).

  Preparations completed.
  max(cpu_time)          :      0.413 s.
  Wall clock time (cpu1) :      0.412 s.
------------------------------------------------------------

------------------------------------------------------------
          Begin self-consistency loop: Initialization.

          Date     :  20220723, Time     :  170639.911
------------------------------------------------------------

  Initializing index lists of integration centers etc. from given atomic structure:
  Mapping all atomic coordinates to central unit cell.

  Initializing the k-points
          Using symmetry for reducing the k-points
  | k-points reduced from:       27 to       14
  | Number of k-points                             :        14
  The eigenvectors in the calculations are COMPLEX.
  | K-points in task   0:         0
  | K-points in task   1:         1
  | K-points in task   2:         1
  | K-points in task   3:         1
  | K-points in task   4:         1
  | K-points in task   5:         1
  | K-points in task   6:         1
  | K-points in task   7:         1
  | K-points in task   8:         1
  | K-points in task   9:         1
  | K-points in task  10:         1
  | K-points in task  11:         1
  | K-points in task  12:         1
  | K-points in task  13:         1
  | K-points in task  14:         1
  | K-points in task  15:         0
  | K-points in task  16:         0
  | K-points in task  17:         0
  | K-points in task  18:         0
  | K-points in task  19:         0
  | Number of basis functions in the Hamiltonian integrals :      3887
  | Number of basis functions in a single unit cell        :       724
  | Number of centers in hartree potential         :      1755
  | Number of centers in hartree multipole         :       929
  | Number of centers in electron density summation:       729
  | Number of centers in basis integrals           :       758
  | Number of centers in integrals                 :       336
  | Number of centers in hamiltonian               :       733
  | Consuming          6 KiB for k_phase.
  | Number of super-cells (origin) [n_cells]                     :         125
  | Number of super-cells (after PM_index) [n_cells]             :          28
  | Number of super-cells in hamiltonian [n_cells_in_hamiltonian]:          28
  | Size of matrix packed + index [n_hamiltonian_matrix_size] :      742741
  Partitioning the integration grid into batches with parallel hashing+maxmin method.
  | Number of batches:     4384
  | Maximal batch size:     170
  | Minimal batch size:      55
  | Average batch size:      81.960
  | Standard deviation of batch sizes:      14.679

  Integration load balanced across    20 MPI tasks.
  Work distribution over tasks is as follows:
  Task     0 has      17950 integration points.
  Task     1 has      17976 integration points.
  Task     2 has      17986 integration points.
  Task     3 has      17963 integration points.
  Task     4 has      17986 integration points.
  Task     5 has      17970 integration points.
  Task     6 has      17938 integration points.
  Task     7 has      17961 integration points.
  Task     8 has      17955 integration points.
  Task     9 has      17973 integration points.
  Task    10 has      17970 integration points.
  Task    11 has      17953 integration points.
  Task    12 has      17937 integration points.
  Task    13 has      17926 integration points.
  Task    14 has      17978 integration points.
  Task    15 has      18003 integration points.
  Task    16 has      17982 integration points.
  Task    17 has      17945 integration points.
  Task    18 has      17978 integration points.
  Task    19 has      17982 integration points.
  Initializing partition tables, free-atom densities, potentials, etc. across the integration grid (initialize_grid_storage).
  | initialize_grid_storage: Actual outermost partition radius vs. multipole_radius_free
  | (-- VB: in principle, multipole_radius_free should be larger, hence this output)
  | Species        1: Confinement radius =              4.999999999999999 AA, multipole_radius_free =              5.001180127821857 AA.
  | Species        1: outer_partition_radius set to              5.001180127821857 AA .
  | Species        2: Confinement radius =              4.999999999999999 AA, multipole_radius_free =              5.022530438398565 AA.
  | Species        2: outer_partition_radius set to              5.022530438398565 AA .
  | Species        3: Confinement radius =              4.999999999999999 AA, multipole_radius_free =              5.005414751018925 AA.
  | Species        3: outer_partition_radius set to              5.005414751018925 AA .
  | Species        4: Confinement radius =              4.999999999999999 AA, multipole_radius_free =              5.007919576009533 AA.
  | Species        4: outer_partition_radius set to              5.007919576009533 AA .
  | Original list of interatomic distances with         758 x        758 entries is created.
  | Net number of integration points:   359312
  | of which are non-zero points    :   323438
  | Numerical average free-atom electrostatic potential    :     -9.55341376 eV
  Renormalizing the initial density to the exact electron count on the 3D integration grid.
  | Initial density: Formal number of electrons (from input files) :     512.0000000000
  | Integrated number of electrons on 3D grid     :     512.0004275436
  | Charge integration error                      :       0.0004275436
  | Normalization factor for density and gradient :       0.9999991650
  Obtaining max. number of non-zero basis functions in each batch (get_n_compute_maxes).
  | Maximal number of non-zero basis functions:      445 in task     0
  | Maximal number of non-zero basis functions:      438 in task     1
  | Maximal number of non-zero basis functions:      432 in task     2
  | Maximal number of non-zero basis functions:      407 in task     3
  | Maximal number of non-zero basis functions:      444 in task     4
  | Maximal number of non-zero basis functions:      430 in task     5
  | Maximal number of non-zero basis functions:      422 in task     6
  | Maximal number of non-zero basis functions:      422 in task     7
  | Maximal number of non-zero basis functions:      419 in task     8
  | Maximal number of non-zero basis functions:      420 in task     9
  | Maximal number of non-zero basis functions:      440 in task    10
  | Maximal number of non-zero basis functions:      435 in task    11
  | Maximal number of non-zero basis functions:      425 in task    12
  | Maximal number of non-zero basis functions:      444 in task    13
  | Maximal number of non-zero basis functions:      425 in task    14
  | Maximal number of non-zero basis functions:      444 in task    15
  | Maximal number of non-zero basis functions:      467 in task    16
  | Maximal number of non-zero basis functions:      452 in task    17
  | Maximal number of non-zero basis functions:      420 in task    18
  | Maximal number of non-zero basis functions:      430 in task    19
  Allocating        0.000 MB for KS_eigenvector_complex
  Integrating Hamiltonian matrix: batch-based integration.
  Time summed over all CPUs for integration: real work       12.989 s, elapsed       13.249 s
  Integrating overlap matrix.
  Time summed over all CPUs for integration: real work        8.802 s, elapsed        8.979 s
  Decreasing sparse matrix size:
   Tolerance:  9.999999824516700E-014
   Hamiltonian matrix
  | Array has   658810 nonzero elements out of   742741 elements
  | Sparsity factor is 0.113
   Overlap matrix
  | Array has   618424 nonzero elements out of   742741 elements
  | Sparsity factor is 0.167
  New size of hamiltonian matrix:      658816

  Updating Kohn-Sham eigenvalues and eigenvectors using ELSI and the ELPA eigensolver.

  Obtaining occupation numbers and chemical potential using ELSI.
  | Chemical potential (Fermi level):    -7.44118925eV
  Writing Kohn-Sham eigenvalues.
  K-point:       1 at    0.000000    0.000000    0.000000 (in units of recip. lattice)

  State    Occupation    Eigenvalue [Ha]    Eigenvalue [eV]
      1       2.00000        -100.759389        -2741.80248
      2       2.00000        -100.737795        -2741.21487
      3       2.00000        -100.732878        -2741.08108
      4       2.00000        -100.728126        -2740.95177
      5       2.00000        -100.725971        -2740.89313
      6       2.00000        -100.725955        -2740.89270
      7       2.00000        -100.723897        -2740.83670
      8       2.00000        -100.722535        -2740.79962
      9       2.00000         -88.174512        -2399.35055
     10       2.00000         -88.161833        -2399.00555
     11       2.00000         -88.151791        -2398.73227
     12       2.00000         -88.148165        -2398.63361
     13       2.00000         -88.143634        -2398.51032
     14       2.00000         -88.139158        -2398.38852
     15       2.00000         -88.138164        -2398.36147
     16       2.00000         -88.137942        -2398.35544
     17       2.00000         -88.137846        -2398.35281
     18       2.00000         -88.137632        -2398.34698
     19       2.00000         -88.134889        -2398.27236
     20       2.00000         -88.127725        -2398.07740
     21       2.00000         -88.124129        -2397.97956
     22       2.00000         -88.123015        -2397.94924
     23       2.00000         -88.121059        -2397.89601
     24       2.00000         -88.120821        -2397.88955
     25       2.00000         -76.390882        -2078.70165
     26       2.00000         -76.388070        -2078.62515
     27       2.00000         -76.378232        -2078.35745
     28       2.00000         -76.377760        -2078.34458
     29       2.00000          -9.274524         -252.37263
     30       2.00000          -9.251895         -251.75686
     31       2.00000          -9.247042         -251.62482
     32       2.00000          -9.241879         -251.48433
     33       2.00000          -9.239717         -251.42548
     34       2.00000          -9.239495         -251.41945
     35       2.00000          -9.237538         -251.36619
     36       2.00000          -9.235910         -251.32191
     37       2.00000          -7.803403         -212.34140
     38       2.00000          -7.790583         -211.99256
     39       2.00000          -7.780367         -211.71455
     40       2.00000          -7.775935         -211.59396
     41       2.00000          -7.771330         -211.46864
     42       2.00000          -7.766593         -211.33976
     43       2.00000          -7.765775         -211.31749
     44       2.00000          -7.765583         -211.31227
     45       2.00000          -7.765438         -211.30833
     46       2.00000          -7.764824         -211.29161
     47       2.00000          -7.762120         -211.21803
     48       2.00000          -7.754659         -211.01502
     49       2.00000          -7.750775         -210.90933
     50       2.00000          -7.749676         -210.87943
     51       2.00000          -7.747515         -210.82062
     52       2.00000          -7.747223         -210.81267
     53       2.00000          -7.091889         -192.98011
     54       2.00000          -7.090807         -192.95068
     55       2.00000          -7.090217         -192.93463
     56       2.00000          -7.069401         -192.36819
     57       2.00000          -7.068171         -192.33473
     58       2.00000          -7.067938         -192.32837
     59       2.00000          -7.064062         -192.22291
     60       2.00000          -7.063507         -192.20780
     61       2.00000          -7.063421         -192.20546
     62       2.00000          -7.058966         -192.08425
     63       2.00000          -7.058536         -192.07254
     64       2.00000          -7.058145         -192.06190
     65       2.00000          -7.056767         -192.02440
     66       2.00000          -7.056616         -192.02028
     67       2.00000          -7.056362         -192.01337
     68       2.00000          -7.056087         -192.00590
     69       2.00000          -7.056047         -192.00481
     70       2.00000          -7.055871         -192.00003
     71       2.00000          -7.054625         -191.96612
     72       2.00000          -7.054300         -191.95728
     73       2.00000          -7.053767         -191.94275
     74       2.00000          -7.052793         -191.91627
     75       2.00000          -7.052627         -191.91174
     76       2.00000          -7.052483         -191.90781
     77       2.00000          -6.400178         -174.15770
     78       2.00000          -6.396954         -174.06997
     79       2.00000          -6.386151         -173.77601
     80       2.00000          -6.385609         -173.76127
     81       2.00000          -5.824682         -158.49767
     82       2.00000          -5.818949         -158.34165
     83       2.00000          -5.818268         -158.32312
     84       2.00000          -5.809735         -158.09093
     85       2.00000          -5.807786         -158.03789
     86       2.00000          -5.805961         -157.98824
     87       2.00000          -5.798714         -157.79105
     88       2.00000          -5.797687         -157.76308
     89       2.00000          -5.796577         -157.73290
     90       2.00000          -5.795981         -157.71666
     91       2.00000          -5.792567         -157.62376
     92       2.00000          -5.791490         -157.59447
     93       2.00000          -5.789937         -157.55221
     94       2.00000          -5.788813         -157.52162
     95       2.00000          -5.787538         -157.48693
     96       2.00000          -5.784884         -157.41470
     97       2.00000          -5.784530         -157.40508
     98       2.00000          -5.784103         -157.39345
     99       2.00000          -5.784009         -157.39089
    100       2.00000          -5.783998         -157.39060
    101       2.00000          -5.783934         -157.38884
    102       2.00000          -5.783580         -157.37923
    103       2.00000          -5.783199         -157.36885
    104       2.00000          -5.782491         -157.34960
    105       2.00000          -5.782404         -157.34722
    106       2.00000          -5.782144         -157.34014
    107       2.00000          -5.782139         -157.34000
    108       2.00000          -5.782106         -157.33911
    109       2.00000          -5.782037         -157.33724
    110       2.00000          -5.780825         -157.30426
    111       2.00000          -5.780698         -157.30079
    112       2.00000          -5.779223         -157.26066
    113       2.00000          -5.778902         -157.25191
    114       2.00000          -5.773108         -157.09425
    115       2.00000          -5.772376         -157.07434
    116       2.00000          -5.771091         -157.03937
    117       2.00000          -5.769787         -157.00390
    118       2.00000          -5.768463         -156.96786
    119       2.00000          -5.768012         -156.95561
    120       2.00000          -5.767214         -156.93386
    121       2.00000          -5.767025         -156.92872
    122       2.00000          -5.766346         -156.91026
    123       2.00000          -5.766230         -156.90709
    124       2.00000          -5.765995         -156.90071
    125       2.00000          -5.764612         -156.86308
    126       2.00000          -5.764362         -156.85626
    127       2.00000          -5.764318         -156.85507
    128       2.00000          -5.764094         -156.84899
    129       2.00000          -4.616125         -125.61115
    130       2.00000          -4.615114         -125.58364
    131       2.00000          -4.614644         -125.57084
    132       2.00000          -4.613033         -125.52701
    133       2.00000          -4.611751         -125.49212
    134       2.00000          -4.611536         -125.48627
    135       2.00000          -4.601567         -125.21500
    136       2.00000          -4.601421         -125.21105
    137       2.00000          -4.601210         -125.20529
    138       2.00000          -4.601068         -125.20143
    139       2.00000          -4.600913         -125.19722
    140       2.00000          -4.600611         -125.18898
    141       2.00000          -1.981070          -53.90765
    142       2.00000          -1.950460          -53.07471
    143       2.00000          -1.950368          -53.07221
    144       2.00000          -1.932372          -52.58252
    145       2.00000          -1.927643          -52.45383
    146       2.00000          -1.922846          -52.32329
    147       2.00000          -1.903124          -51.78664
    148       2.00000          -1.899898          -51.69886
    149       2.00000          -1.899094          -51.67697
    150       2.00000          -1.899065          -51.67620
    151       2.00000          -1.896288          -51.60062
    152       2.00000          -1.894423          -51.54986
    153       2.00000          -1.893763          -51.53190
    154       2.00000          -1.889864          -51.42582
    155       2.00000          -1.887933          -51.37327
    156       2.00000          -1.887003          -51.34795
    157       2.00000          -1.886515          -51.33469
    158       2.00000          -1.886492          -51.33406
    159       2.00000          -1.884979          -51.29290
    160       2.00000          -1.884363          -51.27613
    161       2.00000          -0.840048          -22.85887
    162       2.00000          -0.830621          -22.60234
    163       2.00000          -0.829007          -22.55844
    164       2.00000          -0.807129          -21.96309
    165       2.00000          -0.806410          -21.94352
    166       2.00000          -0.803256          -21.85770
    167       2.00000          -0.798812          -21.73679
    168       2.00000          -0.793721          -21.59825
    169       2.00000          -0.792380          -21.56177
    170       2.00000          -0.788505          -21.45632
    171       2.00000          -0.788111          -21.44559
    172       2.00000          -0.782863          -21.30277
    173       2.00000          -0.754770          -20.53834
    174       2.00000          -0.744558          -20.26045
    175       2.00000          -0.739078          -20.11135
    176       2.00000          -0.728068          -19.81173
    177       2.00000          -0.726120          -19.75874
    178       2.00000          -0.724247          -19.70776
    179       2.00000          -0.722236          -19.65304
    180       2.00000          -0.710784          -19.34141
    181       2.00000          -0.706455          -19.22361
    182       2.00000          -0.704033          -19.15772
    183       2.00000          -0.701123          -19.07853
    184       2.00000          -0.698705          -19.01273
    185       2.00000          -0.575334          -15.65563
    186       2.00000          -0.556703          -15.14865
    187       2.00000          -0.544551          -14.81798
    188       2.00000          -0.531412          -14.46045
    189       2.00000          -0.467526          -12.72204
    190       2.00000          -0.462485          -12.58485
    191       2.00000          -0.456739          -12.42849
    192       2.00000          -0.451030          -12.27316
    193       2.00000          -0.447340          -12.17273
    194       2.00000          -0.442739          -12.04755
    195       2.00000          -0.436916          -11.88908
    196       2.00000          -0.432800          -11.77708
    197       2.00000          -0.429827          -11.69618
    198       2.00000          -0.427512          -11.63320
    199       2.00000          -0.421796          -11.47766
    200       2.00000          -0.417491          -11.36052
    201       2.00000          -0.415538          -11.30735
    202       2.00000          -0.407945          -11.10076
    203       2.00000          -0.406005          -11.04795
    204       2.00000          -0.395812          -10.77060
    205       2.00000          -0.392720          -10.68645
    206       2.00000          -0.391098          -10.64232
    207       2.00000          -0.389420          -10.59665
    208       2.00000          -0.387709          -10.55010
    209       2.00000          -0.385346          -10.48579
    210       2.00000          -0.383374          -10.43214
    211       2.00000          -0.380276          -10.34782
    212       2.00000          -0.378707          -10.30513
    213       2.00000          -0.376750          -10.25188
    214       2.00000          -0.375472          -10.21712
    215       2.00000          -0.374277          -10.18459
    216       2.00000          -0.372582          -10.13848
    217       2.00000          -0.371218          -10.10135
    218       2.00000          -0.369626          -10.05805
    219       2.00000          -0.367424           -9.99811
    220       2.00000          -0.366638           -9.97673
    221       2.00000          -0.365200           -9.93759
    222       2.00000          -0.363364           -9.88763
    223       2.00000          -0.361887           -9.84744
    224       2.00000          -0.360129           -9.79961
    225       2.00000          -0.358839           -9.76451
    226       2.00000          -0.357106           -9.71735
    227       2.00000          -0.355946           -9.68577
    228       2.00000          -0.353660           -9.62358
    229       2.00000          -0.352993           -9.60542
    230       2.00000          -0.350356           -9.53366
    231       2.00000          -0.347485           -9.45554
    232       2.00000          -0.346694           -9.43402
    233       2.00000          -0.344549           -9.37566
    234       2.00000          -0.343160           -9.33785
    235       2.00000          -0.340463           -9.26448
    236       2.00000          -0.337966           -9.19653
    237       2.00000          -0.336620           -9.15990
    238       2.00000          -0.333644           -9.07892
    239       2.00000          -0.330942           -9.00539
    240       2.00000          -0.327915           -8.92302
    241       2.00000          -0.327005           -8.89827
    242       2.00000          -0.326122           -8.87424
    243       2.00000          -0.321374           -8.74503
    244       2.00000          -0.318117           -8.65640
    245       2.00000          -0.314845           -8.56737
    246       2.00000          -0.312601           -8.50630
    247       2.00000          -0.309722           -8.42798
    248       2.00000          -0.304765           -8.29307
    249       2.00000          -0.303796           -8.26670
    250       2.00000          -0.297683           -8.10038
    251       2.00000          -0.295133           -8.03097
    252       2.00000          -0.291462           -7.93109
    253       2.00000          -0.287622           -7.82658
    254       2.00000          -0.283583           -7.71669
    255       2.00000          -0.279252           -7.59882
    256       2.00000          -0.275250           -7.48995
    257       0.00000          -0.189097           -5.14560
    258       0.00000          -0.152424           -4.14767
    259       0.00000          -0.147667           -4.01822
    260       0.00000          -0.138997           -3.78231
    261       0.00000          -0.133817           -3.64136
    262       0.00000          -0.125852           -3.42460
    263       0.00000          -0.123735           -3.36700
    264       0.00000          -0.120429           -3.27703
    265       0.00000          -0.117513           -3.19770
    266       0.00000          -0.116863           -3.18001
    267       0.00000          -0.113072           -3.07686
    268       0.00000          -0.103337           -2.81193
    269       0.00000          -0.098029           -2.66751
    270       0.00000          -0.088916           -2.41953
    271       0.00000          -0.085149           -2.31703
    272       0.00000          -0.083355           -2.26821
    273       0.00000          -0.080864           -2.20042
    274       0.00000          -0.076495           -2.08153
    275       0.00000          -0.073576           -2.00211
    276       0.00000          -0.070289           -1.91266
    277       0.00000          -0.067236           -1.82958
    278       0.00000          -0.065882           -1.79274
    279       0.00000          -0.059972           -1.63193
    280       0.00000          -0.057982           -1.57778
    281       0.00000          -0.057730           -1.57091
    282       0.00000          -0.050619           -1.37741
    283       0.00000          -0.049182           -1.33830
    284       0.00000          -0.046381           -1.26210
    285       0.00000          -0.041545           -1.13050
    286       0.00000          -0.036021           -0.98019
    287       0.00000          -0.032859           -0.89413
    288       0.00000          -0.029121           -0.79241
[...]
    308       0.00000           0.037243            1.01344
    309       0.00000           0.041700            1.13472
    310       0.00000           0.043818            1.19234
    311       0.00000           0.044010            1.19756
    312       0.00000           0.047465            1.29159
    313       0.00000           0.048781            1.32739
    314       0.00000           0.049857            1.35669
    315       0.00000           0.052758            1.43560
    316       0.00000           0.054782            1.49069
    317       0.00000           0.056110            1.52684
    318       0.00000           0.059905            1.63010
    319       0.00000           0.061983            1.68663
    320       0.00000           0.064094            1.74408
    321       0.00000           0.066189            1.80110
    322       0.00000           0.068624            1.86735
    323       0.00000           0.073347            1.99586
    324       0.00000           0.075347            2.05029
    325       0.00000           0.077405            2.10630
    326       0.00000           0.080408            2.18802
    327       0.00000           0.080818            2.19916
    328       0.00000           0.083783            2.27986
    329       0.00000           0.084553            2.30080
    330       0.00000           0.089018            2.42231
    331       0.00000           0.091128            2.47972
    332       0.00000           0.094070            2.55977
    333       0.00000           0.095927            2.61031
    334       0.00000           0.100042            2.72228
    335       0.00000           0.100614            2.73783
    336       0.00000           0.104557            2.84515
    337       0.00000           0.106079            2.88657
    338       0.00000           0.107450            2.92385
    339       0.00000           0.111128            3.02394
    340       0.00000           0.115297            3.13740
    341       0.00000           0.119404            3.24914
    342       0.00000           0.122122            3.32311
    343       0.00000           0.123815            3.36919
    344       0.00000           0.124193            3.37946
    345       0.00000           0.126714            3.44807
    346       0.00000           0.133558            3.63429
    347       0.00000           0.136272            3.70814
    348       0.00000           0.137401            3.73887
    349       0.00000           0.139208            3.78804
    350       0.00000           0.143037            3.89223
    351       0.00000           0.145355            3.95531
    352       0.00000           0.146853            3.99607
    353       0.00000           0.153647            4.18096
    354       0.00000           0.155940            4.24335
    355       0.00000           0.157751            4.29262
    356       0.00000           0.160081            4.35603
    357       0.00000           0.163405            4.44648
    358       0.00000           0.167322            4.55306
    359       0.00000           0.168203            4.57704
    360       0.00000           0.170155            4.63016
    361       0.00000           0.174776            4.75590
    362       0.00000           0.178309            4.85204
    363       0.00000           0.181240            4.93179
    364       0.00000           0.185278            5.04166
    365       0.00000           0.190097            5.17279
    366       0.00000           0.191749            5.21775
    367       0.00000           0.192471            5.23739
    368       0.00000           0.195143            5.31011
    369       0.00000           0.198878            5.41176
    370       0.00000           0.204471            5.56393

  What follows are estimated values for band gap, HOMO, LUMO, etc.
  | They are estimated on a discrete k-point grid and not necessarily exact.
  | For converged numbers, create a DOS and/or band structure plot on a denser k-grid.

  Highest occupied state (VBM) at     -6.23282324 eV (relative to internal zero)
  | Occupation number:      2.00000000
  | K-point:      12 at    0.333333    0.666667    0.666667 (in units of recip. lattice)

  Lowest unoccupied state (CBM) at    -5.33121830 eV (relative to internal zero)
  | Occupation number:      0.00000000
  | K-point:       1 at    0.000000    0.000000    0.000000 (in units of recip. lattice)

  ESTIMATED overall HOMO-LUMO gap:      0.90160494 eV between HOMO at k-point 12 and LUMO at k-point 1
  | This appears to be an indirect band gap.
  | Smallest direct gap :      0.90770506 eV for k_point 1 at    0.000000    0.000000    0.000000 (in units of recip. lattice)
  The gap value is above 0.2 eV. Unless you are using a very sparse k-point grid,
  this system is most likely an insulator or a semiconductor.

  Self-consistency cycle converged.

  End self-consistency iteration #    21       :  max(cpu_time)    wall_clock(cpu1)
  | Time for this iteration                    :       14.417 s          14.419 s
  | Charge density & force component update    :        9.549 s           9.549 s
  | Density mixing                             :        0.007 s           0.007 s
  | Hartree multipole update                   :        0.005 s           0.004 s
  | Hartree multipole summation                :        3.818 s           3.819 s
  | Integration                                :        0.665 s           0.665 s
  | Solution of K.-S. eqns.                    :        0.369 s           0.369 s
  | Total energy evaluation                    :        0.002 s           0.002 s

  Partial memory accounting:
  | Current value for overall tracked memory usage on task 0  :          13.178 MB
  | Peak value for overall tracked memory usage on task 0     :          26.866 MB after allocating wave_pulay
  | Largest tracked array allocation on task 0 so far         :           8.387 MB  when allocating kdm_complex
  Note:  These values currently only include a subset of arrays which are explicitly tracked.
  The "true" memory usage will be greater.
------------------------------------------------------------
  |------------------------------------------
  | Final ELSI Output
  |------------------------------------------
  | Number of basis functions :          724
  | Number of electrons       :        512.0
  | Number of states          :          370
  | Solver                    :         ELPA
  | Parallel mode             :  SINGLE_PROC
  | Matrix format             :  BLACS_DENSE
  |------------------------------------------
  | ELSI Project (c)  elsi-interchange.org
  |------------------------------------------
  Removing unitary transformations (pure translations, rotations) from forces on atoms.
  Atomic forces before filtering:
  | Net force on center of mass :   0.167614E-02  0.580480E-02  0.868360E-02 eV/A
  Atomic forces after filtering:
  | Net force on center of mass :  -0.249769E-14  0.133805E-15  0.713624E-15 eV/A

  Energy and forces in a compact form:
  | Total energy uncorrected      :         -0.314728127783185E+06 eV
  | Total energy corrected        :         -0.314728127783185E+06 eV  <-- do not rely on this value for anything but (periodic) metals
  | Electronic free energy        :         -0.314728127783185E+06 eV
  Total atomic forces (unitary forces cleaned) [eV/Ang]:
  |   1          0.104546973307711E+01          0.393834312636573E+01         -0.123772014290559E+01
  |   2          0.242683963841593E+00         -0.127323301445047E+01          0.128916065676993E+01
  |   3         -0.182110056315814E+00          0.254830523223183E+00         -0.594721047571925E+00
  |   4          0.933632779429628E-01         -0.339375237723931E+00          0.420077574969946E+00
  |   5          0.264783407887627E+00         -0.130958726724685E+01          0.432117938715886E+00
  |   6          0.168118742277095E+00         -0.500311150695769E+00          0.186545293620881E+00
  |   7          0.106173178519851E+01          0.119319355257311E+01          0.583200084253663E+00
  |   8         -0.399112355287665E+00         -0.187417022981993E+01         -0.290593613754692E+00
  |   9          0.100645473529984E+01          0.114857677551587E+01          0.493126105069037E+00
  |  10          0.185327781455536E+01         -0.142464235128132E+01         -0.108531103661226E+01
  |  11          0.139420614816471E+01          0.744373072265969E+00          0.201419670014302E+01
  |  12         -0.176523545080807E+01          0.119429897098667E+00         -0.689038127369436E+00
  |  13          0.233379188211150E+01          0.231482096775139E+01          0.412303045738215E+00
  |  14         -0.434422958401611E+00         -0.498837347007652E+00          0.137631539779657E+01
  |  15          0.436428065554155E+01         -0.468985825459642E+01          0.642722437082500E+01
  |  16         -0.407544383760664E+00         -0.929980390226912E+00          0.290553791919356E+00
  |  17         -0.165424805405488E+01         -0.656221970680646E+00         -0.473136710670962E+00
  |  18          0.341062662447426E+01          0.130163886595849E+01         -0.706973942179742E+01
  |  19          0.247509065294932E+00          0.145561421817052E+00         -0.727897376917448E+00
  |  20         -0.549346138700365E+00          0.268574741559271E+01          0.195928604112891E+01
  |  21         -0.150611668933597E+01          0.264280747046042E+01          0.217031270903273E+01
  |  22          0.759419318059675E+00          0.930394958321474E+00         -0.190656973176951E+01
  |  23          0.411620916276338E+00         -0.420138975337907E+00         -0.770269832147386E+00
  |  24          0.209851335440798E+00         -0.436086650204418E+01          0.161408708841945E+01
  |  25         -0.661707236806375E+01          0.109577459295391E+01         -0.707559128057655E+01
  |  26         -0.215817446319691E+00         -0.645832293520283E+00         -0.155338671436730E+01
  |  27         -0.396540444207536E+01         -0.170901124184039E+01          0.407963317248512E+01
  |  28          0.795455766459816E+00         -0.147591306444408E+01          0.811619304915033E+00
  |  29         -0.783510084987591E-01         -0.405789620017141E+00          0.488470891849280E+00
  |  30         -0.252596095920885E+01         -0.186819692031068E+01          0.563260289244903E-01
  |  31          0.173851611706993E+01         -0.548138605569799E+00          0.219086177410069E+01
  |  32         -0.389579631431092E+00          0.114811867053457E+01         -0.329151200197864E+00
  |  33         -0.878037199087748E+00          0.720530656368873E+00          0.183274147337348E+00
  |  34          0.985462653141518E-01          0.238293592801706E+00          0.557772123024195E-01
  |  35         -0.146925193272822E+00         -0.797354743087344E-01         -0.384481451498010E+00
  |  36          0.705682648476630E+00          0.106439737397801E+01         -0.145084013858019E+00
  |  37          0.716402333295126E+00          0.760335786993885E+00         -0.194296165709647E+01
  |  38          0.103021807125937E+00          0.109438530072297E+01         -0.381085174800623E+00
  |  39         -0.192280665554017E+01          0.252907074405080E+01          0.103008509236519E+01
  |  40         -0.286596299054860E+00          0.231322991407828E+00          0.181208501594018E-01
  |  41         -0.545822974135837E+00         -0.800998927984466E+00          0.124957332408751E+00
  |  42          0.151913003426751E+00          0.303281456683438E+00         -0.538252470609153E+00
  |  43         -0.459254263428301E-02         -0.727399252260403E+00         -0.215198255697464E+00
  |  44          0.549215147253938E+00          0.230076451712469E+00         -0.872061391281371E-01
  |  45         -0.289178545171531E+00         -0.349360427073167E+00          0.628781493202875E+00
  |  46          0.162325033542514E+01          0.279001155530701E+00          0.525310849304221E+00
  |  47          0.217719022598508E-01         -0.463107262118156E+00         -0.561797541285780E-01
  |  48         -0.606683380391337E+00          0.236398959876086E+00         -0.230814979428262E+01

  ------------------------------------ 
  Start decomposition of the XC Energy 
  ------------------------------------ 
  X and C from original XC functional choice 
  Hartree-Fock Energy :          0.000000000 Ha              0.000000000 eV
  X Energy            :       -745.492396940 Ha         -20285.880254956 eV
  C Energy            :        -19.344149227 Ha           -526.381082453 eV
  Total XC Energy     :       -764.836546167 Ha         -20812.261337409 eV
  ------------------------------------ 
  LDA X and C from self-consistent density 
  X Energy LDA        :       -690.133762810 Ha         -18779.495176252 eV
  C Energy LDA        :        -38.827371223 Ha          -1056.546527470 eV
  ------------------------------------ 
  End decomposition of the XC Energy 
  ------------------------------------ 

------------------------------------------------------------

------------------------------------------------------------------------------
  Final output of selected total energy values:

  The following output summarizes some interesting total energy values
  at the end of a run (AFTER all relaxation, molecular dynamics, etc.).

  | Total energy of the DFT / Hartree-Fock s.c.f. calculation      :        -314728.127783185 eV
  | Final zero-broadening corrected energy (caution - metals only) :        -314728.127783185 eV
  | For reference only, the value of 1 Hartree used in FHI-aims is :             27.211384500 eV

  Before relying on these values, please be sure to understand exactly which
  total energy value is referred to by a given number. Different objects may
  all carry the same name 'total energy'. Definitions:

  Total energy of the DFT / Hartree-Fock s.c.f. calculation:
  | Note that this energy does not include ANY quantities calculated after the
  | s.c.f. cycle, in particular not ANY RPA, MP2, etc. many-body perturbation terms.

  Final zero-broadening corrected energy:
  | For metallic systems only, a broadening of the occupation numbers at the Fermi
  | level can be extrapolated back to zero broadening by an electron-gas inspired
  | formula. For all systems that are not real metals, this value can be
  | meaningless and should be avoided.

------------------------------------------------------------------------------
  Methods described in the following list of references were used in this FHI-aims run.
  If you publish the results, please make sure to cite these reference if they apply.
  FHI-aims is an academic code, and for our developers (often, Ph.D. students
  and postdocs), scientific credit in the community is essential.
  Thank you for helping us!

  For any use of FHI-aims, please cite:

    Volker Blum, Ralf Gehrke, Felix Hanke, Paula Havu, Ville Havu,
    Xinguo Ren, Karsten Reuter, and Matthias Scheffler
    'Ab initio molecular simulations with numeric atom-centered orbitals'
    Computer Physics Communications 180, 2175-2196 (2009)
    http://dx.doi.org/10.1016/j.cpc.2009.06.022


  The provided symmetry information was generated with SPGlib:

    Atsushi Togo, Yusuke Seto, Dimitar Pashov
    SPGlib 1.7.3 obtained from http://spglib.sourceforge.net
    Copyright (C) 2008 Atsushi Togo


  The scalable eigensolver library ELPA was used in your run.
  ELPA is essential especially for large systems on hundreds or thousands of CPUs.
  For ELPA, please cite:

    Andreas Marek, Volker Blum, Rainer Johanni, Ville Havu, Bruno Lang,
    Thomas Auckenthaler, Alexander Heinecke, Hans-Joachim Bungartz, and Hermann Lederer,
    'The ELPA Library - Scalable Parallel Eigenvalue Solutions
    for Electronic Structure Theory and Computational Science'
    The Journal of Physics: Condensed Matter 26, 213201 (2014).
    http://dx.doi.org/10.1088/0953-8984/26/21/213201


  The ELSI infrastructure was used in your run to solve the Kohn-Sham electronic structure.
  Please check out http://elsi-interchange.org to learn more.
  If scalability is important for your project, please acknowledge ELSI by citing:

    V. W-z. Yu, F. Corsetti, A. Garcia, W. P. Huhn, M. Jacquelin, W. Jia,
    B. Lange, L. Lin, J. Lu, W. Mi, A. Seifitokaldani, A. Vazquez-Mayagoitia,
    C. Yang, H. Yang, and V. Blum
    'ELSI: A unified software interface for Kohn-Sham electronic structure solvers'
    Computer Physics Communications 222, 267-285 (2018).
    http://dx.doi.org/10.1016/j.cpc.2017.09.007


  For the real-space grid partitioning and parallelization used in this calculation, please cite:

    Ville Havu, Volker Blum, Paula Havu, and Matthias Scheffler,
    'Efficient O(N) integration for all-electron electronic structure calculation'
    'using numerically tabulated basis functions'
    Journal of Computational Physics 228, 8367-8379 (2009).
    http://dx.doi.org/10.1016/j.jcp.2009.08.008

  Of course, there are many other important community references, e.g., those cited in the
  above references. Our list is limited to references that describe implementations in the
  FHI-aims code. The reason is purely practical (length of this list) - please credit others as well.

 * A warning was issued further up regarding the CPU load.
   Some CPUs do not participate in the eigenvalue solution.
   In corner cases, this may be the correct behavior. Otherwise,
   consider using a scalapack/elpa version of the code for a parallel treatment.

------------------------------------------------------------
          Leaving FHI-aims.
          Date     :  20220723, Time     :  170829.090

          Computational steps:
          | Number of self-consistency cycles          :           21
          | Number of SCF (re)initializations          :            1

          Detailed time accounting                     :  max(cpu_time)    wall_clock(cpu1)
          | Total time                                 :      109.664 s         109.683 s
          | Preparation time                           :        0.413 s           0.412 s
          | Boundary condition initalization           :        0.244 s           0.243 s
          | Grid partitioning                          :        0.246 s           0.246 s
          | Preloading free-atom quantities on grid    :        0.009 s           0.008 s
          | Free-atom superposition energy             :        0.143 s           0.143 s
          | Total time for integrations                :       15.201 s          15.198 s
          | Total time for solution of K.-S. equations :        8.372 s           8.378 s
          | Total time for density & force components  :       31.597 s          31.594 s
          | Total time for mixing & preconditioning    :       19.108 s          19.113 s
          | Total time for Hartree multipole update    :        0.099 s           0.101 s
          | Total time for Hartree multipole sum       :       33.462 s          33.465 s
          | Total time for total energy evaluation     :        0.008 s           0.014 s

          Partial memory accounting:
          | Residual value for overall tracked memory usage across tasks :           0.000 MB (should be 0.000 MB)
          | Peak values for overall tracked memory usage (after allocating wave_pulay):
          |   Minimum:       26.013 MB (on task 19)
          |   Maximum:       51.029 MB (on task  2)
          |   Average:       43.760 MB
          | Largest tracked array allocation (kdm_complex):
          |   Minimum:        8.387 MB (on task  1)
          |   Maximum:        8.387 MB (on task  1)
          |   Average:        8.387 MB
          Note:  These values currently only include a subset of arrays which are explicitly tracked.
          The "true" memory usage will be greater.

          Have a nice day.
------------------------------------------------------------
