  MPI-parallelism will be employed.
------------------------------------------------------------
          Invoking FHI-aims ...
          Version 171221_1
          Compiled on 2020/09/23 at 19:46:43 on host login.service.

          When using FHI-aims, please cite the following reference:

          Volker Blum, Ralf Gehrke, Felix Hanke, Paula Havu,
          Ville Havu, Xinguo Ren, Karsten Reuter, and Matthias Scheffler,
          'Ab Initio Molecular Simulations with Numeric Atom-Centered Orbitals',
          Computer Physics Communications 180, 2175-2196 (2009)

          For any questions about FHI-aims, please visit the aimsclub website
          with its forums and wiki. Contributions to both the forums and the
          wiki are warmly encouraged - they are for you, and everyone is welcome there.

------------------------------------------------------------



  Date     :  20220721, Time     :  124457.033
  Time zero on CPU 1             :   0.138819000000000E+00  s.
  Internal wall clock time zero  :           427639497.033  s.

  FHI-aims created a unique identifier for this run for later identification
  aims_uuid : EBF2658A-A6AA-4996-A0BE-5FBD4B3385BB

  Using       20 parallel tasks.
  Task        0 on host node062 reporting.
  Task        1 on host node062 reporting.
  Task        2 on host node062 reporting.
  Task        3 on host node062 reporting.
  Task        4 on host node062 reporting.
  Task        5 on host node062 reporting.
  Task        6 on host node062 reporting.
  Task        7 on host node062 reporting.
  Task        8 on host node062 reporting.
  Task        9 on host node062 reporting.
  Task       10 on host node062 reporting.
  Task       11 on host node062 reporting.
  Task       12 on host node062 reporting.
  Task       13 on host node062 reporting.
  Task       14 on host node062 reporting.
  Task       15 on host node062 reporting.
  Task       16 on host node062 reporting.
  Task       17 on host node062 reporting.
  Task       18 on host node062 reporting.
  Task       19 on host node062 reporting.

  Performing system and environment tests:
  *** Environment variable OMP_NUM_THREADS is not set
  *** For performance reasons you might want to set it to 1
  | Maximum stacksize for task 0: unlimited
  | Maximum stacksize for task 1: unlimited
  | Maximum stacksize for task 2: unlimited
  | Maximum stacksize for task 3: unlimited
  | Maximum stacksize for task 4: unlimited
  | Maximum stacksize for task 5: unlimited
  | Maximum stacksize for task 6: unlimited
  | Maximum stacksize for task 7: unlimited
  | Maximum stacksize for task 8: unlimited
  | Maximum stacksize for task 9: unlimited
  | Maximum stacksize for task 10: unlimited
  | Maximum stacksize for task 11: unlimited
  | Maximum stacksize for task 12: unlimited
  | Maximum stacksize for task 13: unlimited
  | Maximum stacksize for task 14: unlimited
  | Maximum stacksize for task 15: unlimited
  | Maximum stacksize for task 16: unlimited
  | Maximum stacksize for task 17: unlimited
  | Maximum stacksize for task 18: unlimited
  | Maximum stacksize for task 19: unlimited
  | Current stacksize for task 0: unlimited
  | Current stacksize for task 1: unlimited
  | Current stacksize for task 2: unlimited
  | Current stacksize for task 3: unlimited
  | Current stacksize for task 4: unlimited
  | Current stacksize for task 5: unlimited
  | Current stacksize for task 6: unlimited
  | Current stacksize for task 7: unlimited
  | Current stacksize for task 8: unlimited
  | Current stacksize for task 9: unlimited
  | Current stacksize for task 10: unlimited
  | Current stacksize for task 11: unlimited
  | Current stacksize for task 12: unlimited
  | Current stacksize for task 13: unlimited
  | Current stacksize for task 14: unlimited
  | Current stacksize for task 15: unlimited
  | Current stacksize for task 16: unlimited
  | Current stacksize for task 17: unlimited
  | Current stacksize for task 18: unlimited
  | Current stacksize for task 19: unlimited
  | Checking for scalapack...
  | Testing pdtran()...
  | All pdtran() tests passed.

  Obtaining array dimensions for all initial allocations:
  
  -----------------------------------------------------------------------
  Parsing control.in (first pass over file, find array dimensions only).
  The contents of control.in will be repeated verbatim below
  unless switched off by setting 'verbatim_writeout .false.' .
  in the first line of control.in .
  -----------------------------------------------------------------------
  
  #===============================================================================
  # FHI-aims file: ./control.in
  # Created using the Atomic Simulation Environment (ASE)
  # Wed Mar 24 12:41:28 2021
  #===============================================================================
  xc                                 pbe
  sc_accuracy_etot                   1e-06
  sc_accuracy_eev                    0.001
  sc_accuracy_rho                    1e-06
  sc_accuracy_forces                 0.0001
  friction_temperature               300  # default 300
  
    k_grid                           6 6 6
  
  
  
  ################################################################################
  #
  #  FHI-aims code project
  #  VB, Fritz-Haber Institut, 2009
  #
  #  Suggested "light" defaults for Li atom (to be pasted into control.in file)
  #  Be sure to double-check any results obtained with these settings for post-processing,
  #  e.g., with the "tight" defaults and larger basis sets.
  #
  ################################################################################
    species        Li
  #     global species definitions
      nucleus             3
      mass                6.941
  #
      l_hartree           4
  #
      cut_pot             3.5  1.5  1.0
      basis_dep_cutoff    1e-4
  #
      radial_base         29 5.0
      radial_multiplier   1
      angular_grids       specified
        division   0.4484  110
        division   0.5659  194
        division   0.6315  302
  #      division   0.6662  434
  #      division   0.8186  590
  #      division   0.9037  770
  #      division   6.2760  974
  #      outer_grid   974
        outer_grid   302
  ################################################################################
  #
  #  Definition of "minimal" basis
  #
  ################################################################################
  #     valence basis states
      valence      2  s   1.
  #     ion occupancy
      ion_occ      1  s   2.
  ################################################################################
  #
  #  Suggested additional basis functions. For production calculations,
  #  uncomment them one after another (the most important basis functions are
  #  listed first).
  #
  #  Constructed for dimers: 1.80 A, 2.25 A, 2.75 A, 3.50 A, 4.50 A
  #
  ################################################################################
  #  "First tier" - improvements: -189.23 meV to -6.35 meV
       hydro 2 p 1.6
       hydro 2 s 2
       hydro 3 d 2.6
  #  "Second tier" - improvements: -4.69 meV to -0.41 meV
  #     hydro 3 p 4.6
  #     hydro 2 p 1.8
  #     hydro 3 s 6.2
  #     hydro 4 d 4.7
  #     hydro 4 f 4.1
  #  "Third tier" - improvements: -0.20 meV to -0.15 meV
  #     hydro 4 d 0.95
  #     hydro 3 p 6.2
  #     hydro 3 s 1.7
  #  Further functions, listed for completeness
  #     VB: The following functions are only listed for completeness; test very
  #         carefully before any kind of production use. From the point of view
  #         of the basis construction, their main role is to fill up space,
  #         and they are solely determined by the location of the cutoff potential.
  #     hydro 3 p 0.1  # -0.15 meV
  #     hydro 4 d 5    # -0.12 meV
  #     hydro 4 f 0.1  # -0.14 meV
  #     hydro 5 g 0.1  # -0.06 meV
  
  
  ################################################################################
  #
  #  FHI-aims code project
  #  VB, Fritz-Haber Institut, 2010
  #
  #  Suggested "light" defaults for P atom (to be pasted into control.in file)
  #  Be sure to double-check any results obtained with these settings for post-processing,
  #  e.g., with the "tight" defaults and larger basis sets.
  #
  ################################################################################
    species        P
  #     global species definitions
      nucleus             15
      mass                30.973762
  #
      l_hartree           4
  #
      cut_pot             3.5          1.5  1.0
      basis_dep_cutoff    1e-4
  #
      radial_base         43 5.0
      radial_multiplier   1
      angular_grids       specified
        division   0.5527   50
        division   0.8801  110
        division   1.1447  194
        division   1.3165  302
  #      division   1.4113  434
  #      division   1.4781  590
  #      division   1.5482  770
  #      division   1.5845  974
  #      division   2.2606 1202
        outer_grid  302
  ################################################################################
  #
  #  Definition of "minimal" basis
  #
  ################################################################################
  #     valence basis states
      valence      3  s   2.
      valence      3  p   3.
  #     ion occupancy
      ion_occ      3  s   1.
      ion_occ      3  p   2.
  ################################################################################
  #
  #  Suggested additional basis functions. For production calculations,
  #  uncomment them one after another (the most important basis functions are
  #  listed first).
  #
  #  Constructed for dimers: 1.625 A, 1.875 A, 2.5 A, 3.25 A, 4.0 A
  #
  ################################################################################
  #  "First tier" - improvements: -726.20 meV to -35.91 meV
       ionic 3 d auto
       ionic 3 p auto
  #     hydro 4 f 6.2
  #     hydro 5 g 8.6
       ionic 3 s auto
  #  "Second tier" - improvements: -16.02 meV to -1.71 meV
  #     hydro 4 d 6.2
  #     hydro 4 p 9.2
  #     hydro 5 f 9.8
  #     hydro 1 s 0.7
  #     hydro 5 g 13.2
  #  "Third tier" - improvements: -1.82 meV to -0.20 meV
  #     hydro 3 p 2.5
  #     hydro 4 d 6.4
  #     hydro 5 f 11.2
  #     hydro 2 s 1.5
  #  "Fourth tier" - improvements: -0.91 meV to -0.17 meV
  #     hydro 3 d 16.8
  #     hydro 5 g 18
  #     hydro 4 p 4.5
  #     hydro 3 s 2.1
  #  Further basis functions that fell out of the optimization - < -0.09 meV
  #     hydro 4 p 10.4
  #     hydro 4 d 17.6
  #     hydro 4 s 11.2
  ################################################################################
  #
  #  FHI-aims code project
  #  VB, Fritz-Haber Institut, 2009
  #
  #  Suggested "light" defaults for S atom (to be pasted into control.in file)
  #  Be sure to double-check any results obtained with these settings for post-processing,
  #  e.g., with the "tight" defaults and larger basis sets.
  #
  ################################################################################
    species        S
  #     global species definitions
      nucleus             16
      mass                32.065
  #
      l_hartree           4
  #
      cut_pot             3.5          1.5  1.0
      basis_dep_cutoff    1e-4
  #
      radial_base         44 5.0
      radial_multiplier   1
      angular_grids       specified
        division   0.4665  110
        division   0.5810  194
        division   0.7139  302
  #      division   0.8274  434
  #      division   0.9105  590
  #      division   1.0975  770
  #      division   1.2028  974
  #      outer_grid  974
        outer_grid  302
  ################################################################################
  #
  #  Definition of "minimal" basis
  #
  ################################################################################
  #     valence basis states
      valence      3  s   2.
      valence      3  p   4.
  #     ion occupancy
      ion_occ      3  s   1.
      ion_occ      3  p   3.
  ################################################################################
  #
  #  Suggested additional basis functions. For production calculations,
  #  uncomment them one after another (the most important basis functions are
  #  listed first).
  #
  #  Constructed for dimers: 1.6 A, 1.9 A, 2.5 A, 3.25 A, 4.0 A
  #
  ################################################################################
  #  "First tier" - improvements: -652.81 meV to -45.53 meV
       ionic 3 d auto
       hydro 2 p 1.8
  #     hydro 4 f 7
       ionic 3 s auto
  #  "Second tier" - improvements: -30.20 meV to -1.74 meV
  #     hydro 4 d 6.2
  #     hydro 5 g 10.8
  #     hydro 4 p 4.9
  #     hydro 5 f 10
  #     hydro 1 s 0.8
  #  "Third tier" - improvements: -1.04 meV to -0.20 meV
  #     hydro 3 d 3.9
  #     hydro 3 d 2.7
  #     hydro 5 g 12
  #     hydro 4 p 10.4
  #     hydro 5 f 12.4
  #     hydro 2 s 1.9
  #  "Fourth tier" - improvements: -0.35 meV to -0.06 meV
  #     hydro 4 d 10.4
  #     hydro 4 p 7.2
  #     hydro 4 d 10
  #     hydro 5 g 19.2
  #     hydro 4 s 12
  
  ################################################################################
  #
  #  FHI-aims code project
  #  VB, Fritz-Haber Institut, 2009
  #
  #  Suggested "light" defaults for Cl atom (to be pasted into control.in file)
  #  Be sure to double-check any results obtained with these settings for post-processing,
  #  e.g., with the "tight" defaults and larger basis sets.
  #
  ################################################################################
    species        Cl
  #     global species definitions
      nucleus             17
      mass                35.453
  #
      l_hartree           4
  #
      cut_pot             3.5          1.5  1.0
      basis_dep_cutoff    1e-4
  #
      radial_base         45 5.0
      radial_multiplier   1
      angular_grids       specified
        division   0.4412  110
        division   0.5489  194
        division   0.6734  302
  #      division   0.7794  434
  #      division   0.9402  590
  #      division   1.0779  770
  #      division   1.1792  974
  #      outer_grid  974
        outer_grid  302
  ################################################################################
  #
  #  Definition of "minimal" basis
  #
  ################################################################################
  #     valence basis states
      valence      3  s   2.
      valence      3  p   5.
  #     ion occupancy
      ion_occ      3  s   1.
      ion_occ      3  p   4.
  ################################################################################
  #
  #  Suggested additional basis functions. For production calculations,
  #  uncomment them one after another (the most important basis functions are
  #  listed first).
  #
  #  Constructed for dimers: 1.65 A, 2.0 A, 2.5 A, 3.25 A, 4.0 A
  #
  ################################################################################
  #  "First tier" - improvements: -429.57 meV to -15.03 meV
       ionic 3 d auto
       hydro 2 p 1.9
  #     hydro 4 f 7.4
       ionic 3 s auto
  #     hydro 5 g 10.4
  #  "Second tier" - improvements: -7.84 meV to -0.48 meV
  #     hydro 3 d 3.3
  #     hydro 5 f 9.8
  #     hydro 1 s 0.75
  #     hydro 5 g 11.2
  #     hydro 4 p 10.4
  #  "Third tier" - improvements: -1.00 meV to -0.12 meV
  #     hydro 4 d 12.8
  #     hydro 4 f 4.6
  #     hydro 4 d 10.8
  #     hydro 2 s 1.8
  #     hydro 3 p 3
  #  Further functions that fell out - improvements: -0.10 meV and below
  #     hydro 5 f 14.4
  #     hydro 4 s 12.8
  #     hydro 3 d 11.6
  #     hydro 4 s 4.1
  
  -----------------------------------------------------------------------
  Completed first pass over input file control.in .
  -----------------------------------------------------------------------
  
  
  -----------------------------------------------------------------------
  Parsing geometry.in (first pass over file, find array dimensions only).
  The contents of geometry.in will be repeated verbatim below
  unless switched off by setting 'verbatim_writeout .false.' .
  in the first line of geometry.in .
  -----------------------------------------------------------------------
  
  #=======================================================
  # FHI-aims file: /home/gz_fan/Documents/ML/train/battery/CCS/CCS/test/LiP/aims_geo/geometry.in.0
  # Created using the Atomic Simulation Environment (ASE)
  # Thu Jul 21 15:33:03 2022
  #=======================================================
  lattice_vector 3.3886865280000005 0.0000000000000000 0.0000000000000000
  lattice_vector -1.6943432639999996 2.9346886187100880 0.0000000000000000
  lattice_vector 0.0000000000000000 0.0000000000000000 6.0565744000000006
  atom 0.0000000000000000 0.0000000000000000 4.5424308000000009 Li
  atom 0.0000000000000000 0.0000000000000000 1.5141436000000001 Li
  atom 1.6943432809434336 0.9782295297877339 0.5094729819536000 Li
  atom -0.0000000169434323 1.9564590889223539 3.5377601819536006 Li
  atom -0.0000000169434323 1.9564590889223539 5.5471014180463998 Li
  atom 1.6943432809434336 0.9782295297877339 2.5188142180464004 Li
  atom 1.6943432809434336 0.9782295297877339 4.5424308000000009 P
  atom -0.0000000169434323 1.9564590889223539 1.5141436000000001 P
  
  -----------------------------------------------------------------------
  Completed first pass over input file geometry.in .
  -----------------------------------------------------------------------
  

  Basic array size parameters:
  | Number of species                 :        4
  | Number of atoms                   :        8
  | Number of lattice vectors         :        3
  | Max. basis fn. angular momentum   :        2
  | Max. atomic/ionic basis occupied n:        3
  | Max. number of basis fn. types    :        3
  | Max. radial fns per species/type  :        5
  | Max. logarithmic grid size        :     1362
  | Max. radial integration grid size :       45
  | Max. angular integration grid size:      302
  | Max. angular grid division number :        8
  | Radial grid for Hartree potential :     1362
  | Number of spin channels           :        1

------------------------------------------------------------
          Reading file control.in.
------------------------------------------------------------
  XC: Using PBE gradient-corrected functionals.
  Convergence accuracy of total energy:  0.1000E-05
  Convergence accuracy of sum of eigenvalues:  0.1000E-02
  Convergence accuracy of self-consistent charge density:  0.1000E-05
  Convergence accuracy of forces:  0.1000E-03
  Friction is calculated at temperature of   0.3000E+03 K
  Found k-point grid:         6         6         6
 
  Reading configuration options for species Li                  .
  | Found nuclear charge :   3.0000
  | Found atomic mass :    6.94100000000000      amu
  | Found l_max for Hartree potential  :   4
  | Found cutoff potl. onset [A], width [A], scale factor :    3.50000    1.50000    1.00000
  | Threshold for basis-dependent cutoff potential is   0.100000E-03
  | Found data for basic radial integration grid :    29 points, outermost radius =    5.000 A
  | Found multiplier for basic radial grid :   1
  | Found angular grid specification: user-specified.
  | Specified grid contains     4 separate shells.
  | Check grid settings after all constraints further below.
  | Found free-atom valence shell :  2 s   1.000
  | Found free-ion valence shell :  1 s   2.000
  | Found hydrogenic basis function :  2 p   1.600
  | Found hydrogenic basis function :  2 s   2.000
  | Found hydrogenic basis function :  3 d   2.600
  Species Li                  : Missing cutoff potential type.
  Defaulting to exp(1/x)/(1-x)^2 type cutoff potential.
  Species Li: No 'logarithmic' tag. Using default grid for free atom:
  | Default logarithmic grid data [bohr] : 0.1000E-03 0.1000E+03 0.1012E+01
  Species Li: On-site basis accuracy parameter (for Gram-Schmidt orthonormalisation) not specified.
  Using default value basis_acc =  0.1000000E-03.
  Species Li                  : Using default innermost maximum threshold i_radial=  2 for radial functions.
  Species Li                  : Default cutoff onset for free atom density etc. : 0.35000000E+01 AA.
  Species Li                  : Basic radial grid will be enhanced according to radial_multiplier =   1, to contain    29 grid points.
 
  Reading configuration options for species P                   .
  | Found nuclear charge :  15.0000
  | Found atomic mass :    30.9737620000000      amu
  | Found l_max for Hartree potential  :   4
  | Found cutoff potl. onset [A], width [A], scale factor :    3.50000    1.50000    1.00000
  | Threshold for basis-dependent cutoff potential is   0.100000E-03
  | Found data for basic radial integration grid :    43 points, outermost radius =    5.000 A
  | Found multiplier for basic radial grid :   1
  | Found angular grid specification: user-specified.
  | Specified grid contains     5 separate shells.
  | Check grid settings after all constraints further below.
  | Found free-atom valence shell :  3 s   2.000
  | Found free-atom valence shell :  3 p   3.000
  | Found free-ion valence shell :  3 s   1.000
  | Found free-ion valence shell :  3 p   2.000
  | Found ionic basis function :  3 d , default cutoff radius.
  | Found ionic basis function :  3 p , default cutoff radius.
  | Found ionic basis function :  3 s , default cutoff radius.
  Species P                   : Missing cutoff potential type.
  Defaulting to exp(1/x)/(1-x)^2 type cutoff potential.
  Species P : No 'logarithmic' tag. Using default grid for free atom:
  | Default logarithmic grid data [bohr] : 0.1000E-03 0.1000E+03 0.1012E+01
  | Will include ionic basis functions of  2.0-fold positive P                    ion.
  Species P : On-site basis accuracy parameter (for Gram-Schmidt orthonormalisation) not specified.
  Using default value basis_acc =  0.1000000E-03.
  Species P                   : Using default innermost maximum threshold i_radial=  2 for radial functions.
  Species P                   : Default cutoff onset for free atom density etc. : 0.35000000E+01 AA.
  Species P                   : Basic radial grid will be enhanced according to radial_multiplier =   1, to contain    43 grid points.
 
  Reading configuration options for species S                   .
  | Found nuclear charge :  16.0000
  | Found atomic mass :    32.0650000000000      amu
  | Found l_max for Hartree potential  :   4
  | Found cutoff potl. onset [A], width [A], scale factor :    3.50000    1.50000    1.00000
  | Threshold for basis-dependent cutoff potential is   0.100000E-03
  | Found data for basic radial integration grid :    44 points, outermost radius =    5.000 A
  | Found multiplier for basic radial grid :   1
  | Found angular grid specification: user-specified.
  | Specified grid contains     4 separate shells.
  | Check grid settings after all constraints further below.
  | Found free-atom valence shell :  3 s   2.000
  | Found free-atom valence shell :  3 p   4.000
  | Found free-ion valence shell :  3 s   1.000
  | Found free-ion valence shell :  3 p   3.000
  | Found ionic basis function :  3 d , default cutoff radius.
  | Found hydrogenic basis function :  2 p   1.800
  | Found ionic basis function :  3 s , default cutoff radius.
  Species S                   : Missing cutoff potential type.
  Defaulting to exp(1/x)/(1-x)^2 type cutoff potential.
  Species S : No 'logarithmic' tag. Using default grid for free atom:
  | Default logarithmic grid data [bohr] : 0.1000E-03 0.1000E+03 0.1012E+01
  | Will include ionic basis functions of  2.0-fold positive S                    ion.
  Species S : On-site basis accuracy parameter (for Gram-Schmidt orthonormalisation) not specified.
  Using default value basis_acc =  0.1000000E-03.
  Species S                   : Using default innermost maximum threshold i_radial=  2 for radial functions.
  Species S                   : Default cutoff onset for free atom density etc. : 0.35000000E+01 AA.
  Species S                   : Basic radial grid will be enhanced according to radial_multiplier =   1, to contain    44 grid points.
 
  Reading configuration options for species Cl                  .
  | Found nuclear charge :  17.0000
  | Found atomic mass :    35.4530000000000      amu
  | Found l_max for Hartree potential  :   4
  | Found cutoff potl. onset [A], width [A], scale factor :    3.50000    1.50000    1.00000
  | Threshold for basis-dependent cutoff potential is   0.100000E-03
  | Found data for basic radial integration grid :    45 points, outermost radius =    5.000 A
  | Found multiplier for basic radial grid :   1
  | Found angular grid specification: user-specified.
  | Specified grid contains     4 separate shells.
  | Check grid settings after all constraints further below.
  | Found free-atom valence shell :  3 s   2.000
  | Found free-atom valence shell :  3 p   5.000
  | Found free-ion valence shell :  3 s   1.000
  | Found free-ion valence shell :  3 p   4.000
  | Found ionic basis function :  3 d , default cutoff radius.
  | Found hydrogenic basis function :  2 p   1.900
  | Found ionic basis function :  3 s , default cutoff radius.
  Species Cl                  : Missing cutoff potential type.
  Defaulting to exp(1/x)/(1-x)^2 type cutoff potential.
  Species Cl: No 'logarithmic' tag. Using default grid for free atom:
  | Default logarithmic grid data [bohr] : 0.1000E-03 0.1000E+03 0.1012E+01
  | Will include ionic basis functions of  2.0-fold positive Cl                   ion.
  Species Cl: On-site basis accuracy parameter (for Gram-Schmidt orthonormalisation) not specified.
  Using default value basis_acc =  0.1000000E-03.
  Species Cl                  : Using default innermost maximum threshold i_radial=  2 for radial functions.
  Species Cl                  : Default cutoff onset for free atom density etc. : 0.35000000E+01 AA.
  Species Cl                  : Basic radial grid will be enhanced according to radial_multiplier =   1, to contain    45 grid points.
 
  Finished reading input file 'control.in'. Consistency checks are next.
 
  MPI_IN_PLACE appears to work with this MPI implementation.
  | Keeping use_mpi_in_place .true. (see manual).
  Target number of points in a grid batch is not set. Defaulting to  100
  Method for grid partitioning is not set. Defaulting to parallel hash+maxmin partitioning.
  Batch size limit is not set. Defaulting to    200
  By default, will store active basis functions for each batch.
  If in need of memory, prune_basis_once .false. can be used to disable this option.
  communication_type for Hartree potential was not specified.
  Defaulting to calc_hartree .
  Defaulting to Pulay charge density mixer.
  Pulay mixer: Number of relevant iterations not set.
  Defaulting to    8 iterations.
  Pulay mixer: Number of initial linear mixing iterations not set.
  Defaulting to    0 iterations.
  Work space size for distributed Hartree potential not set.
  Defaulting to   0.200000E+03 MB.
  Mixing parameter for charge density mixing has not been set.
  Using default: charge_mix_param =     0.0500.
  The mixing parameter will be adjusted in iteration number     2 of the first full s.c.f. cycle only.
  Algorithm-dependent basis array size parameters:
  | n_max_pulay                         :        8
  Maximum number of self-consistency iterations not provided.
  Presetting  1000 iterations.
  Presetting      1001 iterations before the initial mixing cycle
  is restarted anyway using the sc_init_iter criterion / keyword.
  Presetting a factor      1.000 between actual scf density residual
  and density convergence criterion sc_accuracy_rho below which sc_init_iter
  takes no effect.
  Geometry relaxation not requested: no relaxation will be performed.
  Handling of forces: Unphysical translation and rotation will be removed from forces.
  No accuracy limit for integral partition fn. given. Defaulting to  0.1000E-14.
  No threshold value for u(r) in integrations given. Defaulting to  0.1000E-05.
  No occupation type (smearing scheme) given. Defaulting to Gaussian broadening, width =  0.1000E-01 eV.
  The width will be adjusted in iteration number     2 of the first full s.c.f. cycle only.
  S.C.F. convergence parameters will be adjusted in iteration number     2 of the first full s.c.f. cycle only.
  No accuracy for occupation numbers given. Defaulting to  0.1000E-12.
  No threshold value for occupation numbers given. Defaulting to  0.0000E+00.
  No accuracy for fermi level given. Defaulting to  0.1000E-19.
  Maximum # of iterations to find E_F not set. Defaulting to  200.
  Preferred method for the eigenvalue solver ('KS_method') not specified in 'control.in'.
  Defaulting to serial version, 'lapack_fast', since more k-points than CPUs available.
  Will not use alltoall communication since running on < 1024 CPUs.
  Threshold for basis singularities not set.
  Default threshold for basis singularities:  0.1000E-04
  partition_type (choice of integration weights) for integrals was not specified.
  | Using a version of the partition function of Stratmann and coworkers ('stratmann_smoother').
  | At each grid point, the set of atoms used to build the partition table is smoothly restricted to
  | only those atoms whose free-atom density would be non-zero at that grid point.
  Partitioning for Hartree potential was not defined. Using partition_type for integrals.
  | Adjusted default value of keyword multip_moments_threshold to:       0.10000000E-11
  | This value may affect high angular momentum components of the Hartree potential in periodic systems.
  Spin handling was not defined in control.in. Defaulting to unpolarized case.
  Angular momentum expansion for Kerker preconditioner not set explicitly.
  | Using default value of   0
  No explicit requirement for turning off preconditioner.
  | By default, it will be turned off when the charge convergence reaches
  | sc_accuracy_rho  =   0.100000E-05
  | sc_accuracy_eev  =   0.100000E-02
  | sc_accuracy_etot =   0.100000E-05
  No special mixing parameter while Kerker preconditioner is on.
  Using default: charge_mix_param =     0.0500.
  No q(lm)/r^(l+1) cutoff set for long-range Hartree potential.
  | Using default value of  0.100000E-09 .
  | Verify using the multipole_threshold keyword.
  Defaulting to new monopole extrapolation.
  Density update method: automatic selection selected.
  Using density matrix based charge density update.
  Using density matrix based charge density update.
  Using packed matrix style: index .
  Defaulting to use time-reversal symmetry for k-point grid.
------------------------------------------------------------


------------------------------------------------------------
          Reading geometry description geometry.in.
------------------------------------------------------------
 * Warning! You did not set the 'relativistic' flag in input file 'control.in'.
 * Since you are not attempting to treat any elements beyond Ca(Z=20), FHI-aims
 * will default to 'relativistic none'.
 * You must ensure that this is really what you want!!
 * For example, DO NOT compute total-energy differences between results from
 * different settings of the 'relativistic' flag.
  Input structure read successfully.
  The structure contains        8 atoms,  and a total of         48.000 electrons.

  Input geometry:
  | Unit cell:
  |        3.38868653        0.00000000        0.00000000
  |       -1.69434326        2.93468862        0.00000000
  |        0.00000000        0.00000000        6.05657440
  | Atomic structure:
  |       Atom                x [A]            y [A]            z [A]
  |    1: Species Li            0.00000000        0.00000000        4.54243080
  |    2: Species Li            0.00000000        0.00000000        1.51414360
  |    3: Species Li            1.69434328        0.97822953        0.50947298
  |    4: Species Li           -0.00000002        1.95645909        3.53776018
  |    5: Species Li           -0.00000002        1.95645909        5.54710142
  |    6: Species Li            1.69434328        0.97822953        2.51881422
  |    7: Species P             1.69434328        0.97822953        4.54243080
  |    8: Species P            -0.00000002        1.95645909        1.51414360

  Lattice parameters for 3D lattice (in Angstroms) :     3.388687    3.388687    6.056574
  Angle(s) between unit vectors (in degrees)      :    90.000000   90.000000  120.000000

  |

  | The smallest distance between any two atoms is         1.95645906 AA.
  |
  | The first atom of this pair is atom number                      1 .
  | The second atom of this pair is atom number                     7 .
  | Wigner-Seitz cell of the first atom image           0     0     0 .
  | (The Wigner-Seitz cell of the second atom is 0 0 0  by definition.)

  Symmetry information by spglib:
  | Precision set to  0.1E-04
  | Number of Operations  : 24
  | Space group           : 194
  | International         : P6_3/mmc
  | Schoenflies           : D6h^4

  Quantities derived from the lattice vectors:
  | Reciprocal lattice vector 1:  1.854165  1.070503  0.000000
  | Reciprocal lattice vector 2:  0.000000  2.141006  0.000000
  | Reciprocal lattice vector 3:  0.000000  0.000000  1.037416
  | Unit cell volume                               :   0.602311E+02  A^3

  Range separation radius for Ewald summation (hartree_convergence_parameter):      2.63807295 bohr.

  Fractional coordinates:
                         L1                L2                L3
       atom_frac         0.00000000        0.00000000        0.75000000  Li
       atom_frac         0.00000000        0.00000000        0.25000000  Li
       atom_frac         0.66666667        0.33333333        0.08411900  Li
       atom_frac         0.33333333        0.66666667        0.58411900  Li
       atom_frac         0.33333333        0.66666667        0.91588100  Li
       atom_frac         0.66666667        0.33333333        0.41588100  Li
       atom_frac         0.66666667        0.33333333        0.75000000  P
       atom_frac         0.33333333        0.66666667        0.25000000  P

  Number of empty states per atom not set in control.in - providing a guess from actual geometry.
  | Total number of empty states used during s.c.f. cycle:       15
  If you use a very high smearing, use empty_states (per atom!) in control.in to increase this value.

  Structure-dependent array size parameters: 
  | Maximum number of distinct radial functions  :       29
  | Maximum number of basis functions            :      102
  | Number of Kohn-Sham states (occupied + empty):       39
------------------------------------------------------------

------------------------------------------------------------
          Preparing all fixed parts of the calculation.
------------------------------------------------------------
  Determining machine precision:
    2.225073858507201E-308
  Setting up grids for atomic and cluster calculations.

  Creating wave function, potential, and density for free atoms.

  Species: Li

  List of occupied orbitals and eigenvalues:
    n    l              occ      energy [Ha]    energy [eV]
    1    0           2.0000        -1.876896       -51.0729
    2    0           1.0000        -0.084105        -2.2886


  Species: P

  List of occupied orbitals and eigenvalues:
    n    l              occ      energy [Ha]    energy [eV]
    1    0           2.0000       -76.351489     -2077.6297
    2    0           2.0000        -6.353717      -172.8934
    3    0           2.0000        -0.506059       -13.7706
    2    1           6.0000        -4.569386      -124.3393
    3    1           3.0000        -0.198107        -5.3908


  Species: S

  List of occupied orbitals and eigenvalues:
    n    l              occ      energy [Ha]    energy [eV]
    1    0           2.0000       -88.105825     -2397.4815
    2    0           2.0000        -7.730144      -210.3479
    3    0           2.0000        -0.627748       -17.0819
    2    1           6.0000        -5.747971      -156.4103
    3    1           4.0000        -0.255786        -6.9603


  Species: Cl

  List of occupied orbitals and eigenvalues:
    n    l              occ      energy [Ha]    energy [eV]
    1    0           2.0000      -100.709620     -2740.4482
    2    0           2.0000        -9.221874      -250.9399
    3    0           2.0000        -0.753366       -20.5001
    2    1           6.0000        -7.038743      -191.5339
    3    1           5.0000        -0.315359        -8.5813

  Creating fixed part of basis set: Ionic, confined, hydrogenic.
 
  Li                   hydrogenic:
 
  List of hydrogenic basis orbitals: 
    n    l      effective z      eigenvalue [eV]  inner max. [A]     outer max. [A]     outer radius [A]   
    2    1         1.600000        -8.6069           1.303334           1.303334           4.591005
    2    0         2.000000       -13.5631           0.203259           1.385485           4.591005
    3    2         2.600000        -9.9241           1.769240           1.769240           4.591005
 
 
  P                    ion:

  List of free ionic orbitals and eigenvalues:
    n    l      energy [Ha]    energy [eV]
    1    0       -77.297133     -2103.3620
    2    0        -7.273914      -197.9333
    3    0        -1.267536       -34.4914
    2    1        -5.491316      -149.4263
    3    1        -0.913470       -24.8568


  List of ionic basis orbitals and eigenvalues:
    n    l      energy [Ha]    energy [eV]    outer radius [A]
    3    2        -0.457308       -12.4440       4.554583
    3    1        -0.913443       -24.8560       4.337222
    3    0        -1.267519       -34.4910       3.885335

 
  S                    ion:

  List of free ionic orbitals and eigenvalues:
    n    l      energy [Ha]    energy [eV]
    1    0       -89.127201     -2425.2745
    2    0        -8.724378      -237.4024
    3    0        -1.464668       -39.8556
    2    1        -6.744348      -183.5230
    3    1        -1.048520       -28.5317


  List of ionic basis orbitals and eigenvalues:
    n    l      energy [Ha]    energy [eV]    outer radius [A]
    3    2        -0.496135       -13.5005       4.539062
    3    0        -1.464653       -39.8552       3.642502

 
  S                    hydrogenic:
 
  List of hydrogenic basis orbitals: 
    n    l      effective z      eigenvalue [eV]  inner max. [A]     outer max. [A]     outer radius [A]   
    2    1         1.800000       -10.9749           1.168531           1.168531           4.594893
 
 
  Cl                   ion:

  List of free ionic orbitals and eigenvalues:
    n    l      energy [Ha]    energy [eV]
    1    0      -101.807232     -2770.3157
    2    0       -10.290876      -280.0290
    3    0        -1.664625       -45.2967
    2    1        -8.110237      -220.6908
    3    1        -1.183915       -32.2160


  List of ionic basis orbitals and eigenvalues:
    n    l      energy [Ha]    energy [eV]    outer radius [A]
    3    2        -0.529186       -14.3999       4.541334
    3    0        -1.664610       -45.2963       3.428237

 
  Cl                   hydrogenic:
 
  List of hydrogenic basis orbitals: 
    n    l      effective z      eigenvalue [eV]  inner max. [A]     outer max. [A]     outer radius [A]   
    2    1         1.900000       -12.2492           1.113321           1.113321           4.597192
 

  Adding cutoff potential to free-atom effective potential.
  Creating atomic-like basis functions for current effective potential.

  Species Li                  :

  List of atomic basis orbitals and eigenvalues:
    n    l      energy [Ha]    energy [eV]    outer radius [A]
    1    0        -1.876896       -51.0729       4.062706
    2    0        -0.084105        -2.2886       4.591005


  Species P                   :

  List of atomic basis orbitals and eigenvalues:
    n    l      energy [Ha]    energy [eV]    outer radius [A]
    1    0       -76.351489     -2077.6297       0.736837
    2    0        -6.353717      -172.8934       2.532824
    3    0        -0.506059       -13.7706       4.499242
    2    1        -4.569386      -124.3393       2.862183
    3    1        -0.198107        -5.3908       4.554583


  Species S                   :

  List of atomic basis orbitals and eigenvalues:
    n    l      energy [Ha]    energy [eV]    outer radius [A]
    1    0       -88.105825     -2397.4815       0.682391
    2    0        -7.730144      -210.3479       2.317169
    3    0        -0.627748       -17.0819       4.483910
    2    1        -5.747971      -156.4103       2.555240
    3    1        -0.255786        -6.9603       4.539062


  Species Cl                  :

  List of atomic basis orbitals and eigenvalues:
    n    l      energy [Ha]    energy [eV]    outer radius [A]
    1    0      -100.709620     -2740.4482       0.642251
    2    0        -9.221874      -250.9399       2.128190
    3    0        -0.753366       -20.5001       4.431645
    2    1        -7.038743      -191.5339       2.346844
    3    1        -0.315359        -8.5813       4.541334

  Assembling full basis from fixed parts.
  | Species Li :   atomic orbital   1 s accepted.
  | Species Li :   atomic orbital   2 s accepted.
  | Species Li :    hydro orbital   2 s accepted.
  | Species Li :    hydro orbital   2 p accepted.
  | Species Li :    hydro orbital   3 d accepted.
  | Species P :   atomic orbital   1 s accepted.
  | Species P :   atomic orbital   2 s accepted.
  | Species P :    ionic orbital   3 s accepted.
  | Species P :   atomic orbital   3 s accepted.
  | Species P :   atomic orbital   2 p accepted.
  | Species P :    ionic orbital   3 p accepted.
  | Species P :   atomic orbital   3 p accepted.
  | Species P :    ionic orbital   3 d accepted.
  | Species S :   atomic orbital   1 s accepted.
  | Species S :   atomic orbital   2 s accepted.
  | Species S :    ionic orbital   3 s accepted.
  | Species S :   atomic orbital   3 s accepted.
  | Species S :   atomic orbital   2 p accepted.
  | Species S :   atomic orbital   3 p accepted.
  | Species S :    hydro orbital   2 p accepted.
  | Species S :    ionic orbital   3 d accepted.
  | Species Cl :   atomic orbital   1 s accepted.
  | Species Cl :   atomic orbital   2 s accepted.
  | Species Cl :    ionic orbital   3 s accepted.
  | Species Cl :   atomic orbital   3 s accepted.
  | Species Cl :   atomic orbital   2 p accepted.
  | Species Cl :   atomic orbital   3 p accepted.
  | Species Cl :    hydro orbital   2 p accepted.
  | Species Cl :    ionic orbital   3 d accepted.
 
  Basis size parameters after reduction:
  | Total number of radial functions:       29
  | Total number of basis functions :      102
 
  Per-task memory consumption for arrays in subroutine allocate_ext:
  |           7.588368MB.
  Testing on-site integration grid accuracy.
  |  Species  Function  <phi|h_atom|phi> (log., in eV)  <phi|h_atom|phi> (rad., in eV)
           1        1                -51.0729407432                -51.0729328795
           1        2                 -2.3261068990                 -2.3227046518
           1        3                 17.1966930198                 17.2358027191 ***
           1        4                  0.3867256281                  0.3982841734
           1        5                  6.2743141416                  6.2817896417
           2        6              -2077.6297159538              -2077.6288551184
           2        7               -172.8934457906               -172.8934403880
           2        8                -13.4653967551                -13.4655200798
           2        9                  6.4162845277                  6.4013396720
           2       10               -124.3393201040               -124.3393200061
           2       11                 -4.7560266034                 -4.7560495157
           2       12                  6.5873401476                  6.4958904717 ***
           2       13                  5.2911719464                  5.2826493609
           3       14              -2397.4814915323              -2397.4804563634
           3       15               -210.3479335736               -210.3479265952
           3       16                -16.8079362322                -16.8079092816
           3       17                  7.5772439785                  7.5675998324
           3       18               -156.4102581151               -156.4102580951
           3       19                 -6.9617737483                 -6.9640288036
           3       20                  7.5696988470                  7.5151244831 ***
           3       21                  6.0973034823                  6.0928113248
           4       22              -2740.4481953768              -2740.4469735573
           4       23               -250.9399497423               -250.9399403187
           4       24                -20.2462734235                -20.2462512680
           4       25                  8.9460051782                  8.9510436705
           4       26               -191.5339459398               -191.5339455009
           4       27                 -8.5819075957                 -8.5827488985
           4       28                  8.1339828089                  8.0979459360 ***
           4       29                  7.0302175114                  7.0277664253
 * Note: Onsite integrals marked "***" above are less accurate than
 * onsite_accuracy_threshold =    0.03000 eV. Usually, this is harmless.
 * When in doubt, tighten the "radial" and/or "radial_multiplier" flags to check.

  Preparing densities etc. for the partition functions (integrals / Hartree potential).

  Preparations completed.
  max(cpu_time)          :      0.443 s.
  Wall clock time (cpu1) :      0.435 s.
------------------------------------------------------------

------------------------------------------------------------
          Begin self-consistency loop: Initialization.

          Date     :  20220721, Time     :  124457.565
------------------------------------------------------------

  Initializing index lists of integration centers etc. from given atomic structure:
  Mapping all atomic coordinates to central unit cell.

  Initializing the k-points
          Using symmetry for reducing the k-points
  | k-points reduced from:      216 to      112
  | Number of k-points                             :       112
  The eigenvectors in the calculations are COMPLEX.
  | K-points in task   0:         5
  | K-points in task   1:         6
  | K-points in task   2:         6
  | K-points in task   3:         6
  | K-points in task   4:         6
  | K-points in task   5:         6
  | K-points in task   6:         6
  | K-points in task   7:         6
  | K-points in task   8:         6
  | K-points in task   9:         6
  | K-points in task  10:         6
  | K-points in task  11:         6
  | K-points in task  12:         6
  | K-points in task  13:         5
  | K-points in task  14:         5
  | K-points in task  15:         5
  | K-points in task  16:         5
  | K-points in task  17:         5
  | K-points in task  18:         5
  | K-points in task  19:         5
  | Number of basis functions in the Hamiltonian integrals :      3194
  | Number of basis functions in a single unit cell        :       102
  | Number of centers in hartree potential         :      1594
  | Number of centers in hartree multipole         :      1176
  | Number of centers in electron density summation:       822
  | Number of centers in basis integrals           :       832
  | Number of centers in integrals                 :       296
  | Number of centers in hamiltonian               :       822
  | Consuming        269 KiB for k_phase.
  | Number of super-cells (origin) [n_cells]                     :         847
  | Number of super-cells (after PM_index) [n_cells]             :         154
  | Number of super-cells in hamiltonian [n_cells_in_hamiltonian]:         154
  | Size of matrix packed + index [n_hamiltonian_matrix_size] :      278073
  Partitioning the integration grid into batches with parallel hashing+maxmin method.
  | Number of batches:      725
  | Maximal batch size:     122
  | Minimal batch size:      51
  | Average batch size:      66.328
  | Standard deviation of batch sizes:      14.360

  Integration load balanced across    20 MPI tasks.
  Work distribution over tasks is as follows:
  Task     0 has       2432 integration points.
  Task     1 has       2393 integration points.
  Task     2 has       2431 integration points.
  Task     3 has       2395 integration points.
  Task     4 has       2437 integration points.
  Task     5 has       2372 integration points.
  Task     6 has       2446 integration points.
  Task     7 has       2396 integration points.
  Task     8 has       2392 integration points.
  Task     9 has       2364 integration points.
  Task    10 has       2440 integration points.
  Task    11 has       2410 integration points.
  Task    12 has       2406 integration points.
  Task    13 has       2390 integration points.
  Task    14 has       2389 integration points.
  Task    15 has       2368 integration points.
  Task    16 has       2436 integration points.
  Task    17 has       2385 integration points.
  Task    18 has       2367 integration points.
  Task    19 has       2439 integration points.
  Initializing partition tables, free-atom densities, potentials, etc. across the integration grid (initialize_grid_storage).
  | initialize_grid_storage: Actual outermost partition radius vs. multipole_radius_free
  | (-- VB: in principle, multipole_radius_free should be larger, hence this output)
  | Species        1: Confinement radius =              4.999999999999999 AA, multipole_radius_free =              5.001180127821857 AA.
  | Species        1: outer_partition_radius set to              5.001180127821857 AA .
  | Species        2: Confinement radius =              4.999999999999999 AA, multipole_radius_free =              5.022530438398565 AA.
  | Species        2: outer_partition_radius set to              5.022530438398565 AA .
  | Species        3: Confinement radius =              4.999999999999999 AA, multipole_radius_free =              5.005414751018925 AA.
  | Species        3: outer_partition_radius set to              5.005414751018925 AA .
  | Species        4: Confinement radius =              4.999999999999999 AA, multipole_radius_free =              5.007919576009533 AA.
  | Species        4: outer_partition_radius set to              5.007919576009533 AA .
  | Original list of interatomic distances with         832 x        832 entries is created.
  | Net number of integration points:    48088
  | of which are non-zero points    :    37738
  | Numerical average free-atom electrostatic potential    :    -20.60805961 eV
  Renormalizing the initial density to the exact electron count on the 3D integration grid.
  | Initial density: Formal number of electrons (from input files) :      48.0000000000
  | Integrated number of electrons on 3D grid     :      47.9990762013
  | Charge integration error                      :      -0.0009237987
  | Normalization factor for density and gradient :       1.0000192462
  Obtaining max. number of non-zero basis functions in each batch (get_n_compute_maxes).
  | Maximal number of non-zero basis functions:      877 in task     0
  | Maximal number of non-zero basis functions:      882 in task     1
  | Maximal number of non-zero basis functions:      886 in task     2
  | Maximal number of non-zero basis functions:      916 in task     3
  | Maximal number of non-zero basis functions:      906 in task     4
  | Maximal number of non-zero basis functions:      875 in task     5
  | Maximal number of non-zero basis functions:      889 in task     6
  | Maximal number of non-zero basis functions:      859 in task     7
  | Maximal number of non-zero basis functions:      897 in task     8
  | Maximal number of non-zero basis functions:      870 in task     9
  | Maximal number of non-zero basis functions:      885 in task    10
  | Maximal number of non-zero basis functions:      890 in task    11
  | Maximal number of non-zero basis functions:      869 in task    12
  | Maximal number of non-zero basis functions:      874 in task    13
  | Maximal number of non-zero basis functions:      870 in task    14
  | Maximal number of non-zero basis functions:      879 in task    15
  | Maximal number of non-zero basis functions:      875 in task    16
  | Maximal number of non-zero basis functions:      898 in task    17
  | Maximal number of non-zero basis functions:      894 in task    18
  | Maximal number of non-zero basis functions:      881 in task    19
  Allocating        0.318 MB for KS_eigenvector_complex
  Integrating Hamiltonian matrix: batch-based integration.
  Time summed over all CPUs for integration: real work        6.661 s, elapsed        6.941 s
  Integrating overlap matrix.
  Time summed over all CPUs for integration: real work        4.945 s, elapsed        5.201 s
  Decreasing sparse matrix size:
   Tolerance:  9.999999824516700E-014
   Hamiltonian matrix
  | Array has   239768 nonzero elements out of   278073 elements
  | Sparsity factor is 0.138
   Overlap matrix
  | Array has   220362 nonzero elements out of   278073 elements
  | Sparsity factor is 0.208
  New size of hamiltonian matrix:      239967

  Updating Kohn-Sham eigenvalues and eigenvectors using ELSI and the ELPA eigensolver.
  Overlap matrix is nonsingular
  | Lowest eigenvalue of overlap  :  0.14E-03
  | Highest eigenvalue of overlap :  0.19E+02
  Finished singularity check of overlap matrix
  | Time :     0.002 s
  Finished Cholesky decomposition
  | Time :     0.000 s
  Finished transformation to standard eigenproblem
  | Time :     0.001 s
  Starting LAPACK eigensolver
  Finished solving standard eigenproblem
  | Time :     0.002 s
  Finished back-transformation of eigenvectors
  | Time :     0.000 s

  Obtaining occupation numbers and chemical potential using ELSI.
  | Chemical potential (Fermi level):   -11.37362703eV
  Writing Kohn-Sham eigenvalues.
  K-point:       1 at    0.000000    0.000000    0.000000 (in units of recip. lattice)

  State    Occupation    Eigenvalue [Ha]    Eigenvalue [eV]
      1       2.00000         -76.511612        -2081.98690
      2       2.00000         -76.511612        -2081.98690
      3       2.00000          -6.526200         -177.58695
      4       2.00000          -6.526200         -177.58695
      5       2.00000          -4.741189         -129.01431
      6       2.00000          -4.741188         -129.01430
      7       2.00000          -4.741188         -129.01428
      8       2.00000          -4.741188         -129.01428
      9       2.00000          -4.740065         -128.98373
     10       2.00000          -4.740065         -128.98373
     11       2.00000          -2.037855          -55.45285
     12       2.00000          -2.031320          -55.27504
     13       2.00000          -2.023155          -55.05285
     14       2.00000          -2.019999          -54.96697
     15       2.00000          -2.015766          -54.85178
     16       2.00000          -2.012899          -54.77377
     17       2.00000          -0.826378          -22.48689
     18       2.00000          -0.809155          -22.01822
     19       2.00000          -0.598330          -16.28139
     20       2.00000          -0.451623          -12.28930
     21       2.00000          -0.447675          -12.18185
     22       2.00000          -0.447672          -12.18179
     23       0.00039          -0.417052          -11.34856
     24       0.00032          -0.417039          -11.34820
     25       0.00000          -0.283458           -7.71329
     26       0.00000          -0.268462           -7.30524
     27       0.00000          -0.268456           -7.30507
     28       0.00000          -0.248677           -6.76684
     29       0.00000          -0.248667           -6.76656
     30       0.00000          -0.157334           -4.28126
     31       0.00000          -0.157314           -4.28073
     32       0.00000          -0.115163           -3.13374
     33       0.00000          -0.086050           -2.34155
     34       0.00000          -0.057245           -1.55771
     35       0.00000          -0.031627           -0.86062
     36       0.00000          -0.031603           -0.85997
     37       0.00000           0.146270            3.98022
     38       0.00000           0.154547            4.20545
     39       0.00000           0.154568            4.20601

  What follows are estimated values for band gap, HOMO, LUMO, etc.
  | They are estimated on a discrete k-point grid and not necessarily exact.
  | For converged numbers, create a DOS and/or band structure plot on a denser k-grid.

  Highest occupied state (VBM) at    -11.39996417 eV (relative to internal zero)
  | Occupation number:      1.99980440
  | K-point:       2 at    0.000000    0.000000    0.166667 (in units of recip. lattice)

  Lowest unoccupied state (CBM) at   -11.34855550 eV (relative to internal zero)
  | Occupation number:      0.00039165
  | K-point:       1 at    0.000000    0.000000    0.000000 (in units of recip. lattice)

  ESTIMATED overall HOMO-LUMO gap:      0.05140867 eV between HOMO at k-point 2 and LUMO at k-point 1
  | This appears to be an indirect band gap.
  | Smallest direct gap :      0.83323244 eV for k_point 1 at    0.000000    0.000000    0.000000 (in units of recip. lattice)
  However, the gap value is rather small. Since we use a finite k-point grid,
  this material is most likely metallic (in the sense that there are states
  at or near the Fermi level). A DOS and/or band structure plot is required
  for an unambiguous distinction.
  Calculating total energy contributions from superposition of free atom densities.

  Total energy components:
  | Sum of eigenvalues            :        -422.77960667 Ha      -11504.41843575 eV
  | XC energy correction          :         -58.44574461 Ha       -1590.38962894 eV
  | XC potential correction       :          75.42017173 Ha        2052.28729203 eV
  | Free-atom electrostatic energy:        -321.68620047 Ha       -8753.52688932 eV
  | Hartree energy correction     :           0.00000000 Ha           0.00000000 eV
  | Entropy correction            :          -0.00000000 Ha          -0.00000009 eV
  | ---------------------------
  | Total energy                  :        -727.49138001 Ha      -19796.04766198 eV
  | Total energy, T -> 0          :        -727.49138002 Ha      -19796.04766207 eV  <-- do not rely on this value for anything but (periodic) metals
  | Electronic free energy        :        -727.49138002 Ha      -19796.04766216 eV

  Derived energy quantities:
  | Kinetic energy                :         729.60096669 Ha       19853.45243621 eV
  | Electrostatic energy          :       -1398.64660210 Ha      -38059.11046925 eV
  | Energy correction for multipole
  | error in Hartree potential    :           0.00000000 Ha           0.00000000 eV
  | Sum of eigenvalues per atom                           :       -1438.05230447 eV
  | Total energy (T->0) per atom                          :       -2474.50595776 eV  <-- do not rely on this value for anything but (periodic) metals
  | Electronic free energy per atom                       :       -2474.50595777 eV
  Initialize hartree_potential_storage
  Max. number of atoms included in rho_multipole:            8

  End scf initialization - timings             :  max(cpu_time)    wall_clock(cpu1)
  | Time for scf. initialization               :        1.141 s           1.141 s
  | Boundary condition initialization          :        0.079 s           0.079 s
  | Integration                                :        0.623 s           0.623 s
  | Solution of K.-S. eqns.                    :        0.046 s           0.044 s
  | Grid partitioning                          :        0.039 s           0.039 s
  | Preloading free-atom quantities on grid    :        0.008 s           0.009 s
  | Free-atom superposition energy             :        0.027 s           0.027 s
  | Total energy evaluation                    :        0.000 s           0.001 s

  Partial memory accounting:
  | Current value for overall tracked memory usage on task 0  :           5.118 MB
  | Peak value for overall tracked memory usage on task 0     :          14.623 MB after allocating wave
  | Largest tracked array allocation on task 0 so far         :           6.153 MB  when allocating hamiltonian_shell
  Note:  These values currently only include a subset of arrays which are explicitly tracked.
  The "true" memory usage will be greater.
------------------------------------------------------------

------------------------------------------------------------
          Begin self-consistency iteration #    1

  Date     :  20220721, Time     :  124458.706
------------------------------------------------------------
  Evaluating new KS density using the density matrix
  Evaluating density matrix
  Time summed over all CPUs for getting density from density matrix: real work       11.971 s, elapsed       12.466 s
  Integration grid: deviation in total charge (<rho> - N_e) =  -1.080025E-12
  Pulay mixing of updated and previous charge densities.

  Evaluating partitioned Hartree potential by multipole expansion.
  | Analytical far-field extrapolation by fixed multipoles:
  | Hartree multipole sum: apparent total charge =  -0.688554E-03
  Summing up the Hartree potential.
  | Estimated reciprocal-space cutoff momentum G_max:         3.60406821 bohr^-1 .
  | Reciprocal lattice points for long-range Hartree potential:     336
  Time summed over all CPUs for potential: real work        3.162 s, elapsed        3.303 s
  | RMS charge density error from multipole expansion :   0.752610E-03
  | Average real-space part of the electrostatic potential :     -0.00308992 eV

  Integrating Hamiltonian matrix: batch-based integration.
  Time summed over all CPUs for integration: real work        6.552 s, elapsed        6.860 s

  Updating Kohn-Sham eigenvalues and eigenvectors using ELSI and the ELPA eigensolver.
  Finished Cholesky decomposition
  | Time :     0.000 s
  Finished transformation to standard eigenproblem
  | Time :     0.001 s
  Starting LAPACK eigensolver
  Finished solving standard eigenproblem
  | Time :     0.002 s
  Finished back-transformation of eigenvectors
  | Time :     0.000 s

  Obtaining occupation numbers and chemical potential using ELSI.
  | Chemical potential (Fermi level):   -11.31678663eV
  Writing Kohn-Sham eigenvalues.
  K-point:       1 at    0.000000    0.000000    0.000000 (in units of recip. lattice)

  State    Occupation    Eigenvalue [Ha]    Eigenvalue [eV]
      1       2.00000         -76.502590        -2081.74139
      2       2.00000         -76.502590        -2081.74139
      3       2.00000          -6.520197         -177.42358
      4       2.00000          -6.520196         -177.42357
      5       2.00000          -4.734904         -128.84330
      6       2.00000          -4.734904         -128.84329
      7       2.00000          -4.734903         -128.84327
      8       2.00000          -4.734903         -128.84327
      9       2.00000          -4.733907         -128.81616
     10       2.00000          -4.733907         -128.81616
     11       2.00000          -2.039199          -55.48944
     12       2.00000          -2.032620          -55.31041
     13       2.00000          -2.024634          -55.09309
     14       2.00000          -2.021366          -55.00415
     15       2.00000          -2.017196          -54.89070
     16       2.00000          -2.014395          -54.81448
     17       2.00000          -0.824640          -22.43960
     18       2.00000          -0.807023          -21.96021
     19       2.00000          -0.598087          -16.27477
     20       2.00000          -0.450214          -12.25094
     21       2.00000          -0.445757          -12.12966
     22       2.00000          -0.445754          -12.12960
     23       0.00040          -0.414964          -11.29174
     24       0.00032          -0.414950          -11.29137
     25       0.00000          -0.283146           -7.70480
     26       0.00000          -0.267574           -7.28106
     27       0.00000          -0.267568           -7.28090
     28       0.00000          -0.247771           -6.74219
     29       0.00000          -0.247761           -6.74193
     30       0.00000          -0.157165           -4.27667
     31       0.00000          -0.157144           -4.27610
     32       0.00000          -0.114847           -3.12514
     33       0.00000          -0.084686           -2.30444
     34       0.00000          -0.057380           -1.56139
     35       0.00000          -0.031843           -0.86649
     36       0.00000          -0.031822           -0.86591
     37       0.00000           0.145831            3.96827
     38       0.00000           0.155365            4.22770
     39       0.00000           0.155385            4.22824

  What follows are estimated values for band gap, HOMO, LUMO, etc.
  | They are estimated on a discrete k-point grid and not necessarily exact.
  | For converged numbers, create a DOS and/or band structure plot on a denser k-grid.

  Highest occupied state (VBM) at    -11.34309673 eV (relative to internal zero)
  | Occupation number:      1.99980142
  | K-point:       2 at    0.000000    0.000000    0.166667 (in units of recip. lattice)

  Lowest unoccupied state (CBM) at   -11.29174420 eV (relative to internal zero)
  | Occupation number:      0.00039781
  | K-point:       1 at    0.000000    0.000000    0.000000 (in units of recip. lattice)

  ESTIMATED overall HOMO-LUMO gap:      0.05135253 eV between HOMO at k-point 2 and LUMO at k-point 1
  | This appears to be an indirect band gap.
  | Smallest direct gap :      0.83785226 eV for k_point 1 at    0.000000    0.000000    0.000000 (in units of recip. lattice)
  However, the gap value is rather small. Since we use a finite k-point grid,
  this material is most likely metallic (in the sense that there are states
  at or near the Fermi level). A DOS and/or band structure plot is required
  for an unambiguous distinction.

  Total energy components:
  | Sum of eigenvalues            :        -422.63763936 Ha      -11500.55530871 eV
  | XC energy correction          :         -58.45334867 Ha       -1590.59654607 eV
  | XC potential correction       :          75.43016082 Ha        2052.55910886 eV
  | Free-atom electrostatic energy:        -321.68620047 Ha       -8753.52688932 eV
  | Hartree energy correction     :          -0.13977280 Ha          -3.80341143 eV
  | Entropy correction            :          -0.00000000 Ha          -0.00000009 eV
  | ---------------------------
  | Total energy                  :        -727.48680048 Ha      -19795.92304667 eV
  | Total energy, T -> 0          :        -727.48680049 Ha      -19795.92304676 eV  <-- do not rely on this value for anything but (periodic) metals
  | Electronic free energy        :        -727.48680049 Ha      -19795.92304685 eV

  Derived energy quantities:
  | Kinetic energy                :         729.71348093 Ha       19856.51410442 eV
  | Electrostatic energy          :       -1398.74693274 Ha      -38061.84060502 eV
  | Energy correction for multipole
  | error in Hartree potential    :           0.00020633 Ha           0.00561444 eV
  | Sum of eigenvalues per atom                           :       -1437.56941359 eV
  | Total energy (T->0) per atom                          :       -2474.49038085 eV  <-- do not rely on this value for anything but (periodic) metals
  | Electronic free energy per atom                       :       -2474.49038086 eV

  Self-consistency convergence accuracy:
  | Change of charge density      :  0.1840E+00
  | Change of sum of eigenvalues  :  0.3863E+01 eV
  | Change of total energy        :  0.1246E+00 eV

  End self-consistency iteration #     1       :  max(cpu_time)    wall_clock(cpu1)
  | Time for this iteration                    :        1.358 s           1.359 s
  | Charge density update                      :        0.639 s           0.639 s
  | Density mixing & preconditioning           :        0.129 s           0.129 s
  | Hartree multipole update                   :        0.001 s           0.001 s
  | Hartree multipole summation                :        0.168 s           0.178 s
  | Integration                                :        0.350 s           0.351 s
  | Solution of K.-S. eqns.                    :        0.035 s           0.035 s
  | Total energy evaluation                    :        0.001 s           0.025 s

  Partial memory accounting:
  | Current value for overall tracked memory usage on task 0  :           5.118 MB
  | Peak value for overall tracked memory usage on task 0     :          16.407 MB after allocating gradient_basis_wave
  | Largest tracked array allocation on task 0 so far         :           6.153 MB  when allocating hamiltonian_shell
  Note:  These values currently only include a subset of arrays which are explicitly tracked.
  The "true" memory usage will be greater.
------------------------------------------------------------

------------------------------------------------------------
          Begin self-consistency iteration #    2

  Date     :  20220721, Time     :  124500.066
------------------------------------------------------------
  Evaluating new KS density using the density matrix
  Evaluating density matrix
  Time summed over all CPUs for getting density from density matrix: real work       12.013 s, elapsed       12.440 s
  Integration grid: deviation in total charge (<rho> - N_e) =  -1.108447E-12
  Pulay mixing of updated and previous charge densities.

  Evaluating partitioned Hartree potential by multipole expansion.
  | Analytical far-field extrapolation by fixed multipoles:
  | Hartree multipole sum: apparent total charge =   0.193016E-02
  Summing up the Hartree potential.
  Time summed over all CPUs for potential: real work        3.375 s, elapsed        3.537 s
  | RMS charge density error from multipole expansion :   0.104955E-01
  | Average real-space part of the electrostatic potential :     -0.06196819 eV

  Integrating Hamiltonian matrix: batch-based integration.
  Time summed over all CPUs for integration: real work        6.537 s, elapsed        6.828 s

  Updating Kohn-Sham eigenvalues and eigenvectors using ELSI and the ELPA eigensolver.
  Finished Cholesky decomposition
  | Time :     0.000 s
  Finished transformation to standard eigenproblem
  | Time :     0.001 s
  Starting LAPACK eigensolver
  Finished solving standard eigenproblem
  | Time :     0.002 s
  Finished back-transformation of eigenvectors
  | Time :     0.000 s

  Obtaining occupation numbers and chemical potential using ELSI.
  | Chemical potential (Fermi level):   -10.74932375eV
  What follows are estimated values for band gap, HOMO, LUMO, etc.
  | They are estimated on a discrete k-point grid and not necessarily exact.
  | For converged numbers, create a DOS and/or band structure plot on a denser k-grid.

  Highest occupied state (VBM) at    -10.79546978 eV (relative to internal zero)
  | Occupation number:      2.00000000
  | K-point:       3 at    0.000000    0.000000    0.333333 (in units of recip. lattice)

  Lowest unoccupied state (CBM) at   -10.64485151 eV (relative to internal zero)
  | Occupation number:      0.00000000
  | K-point:       2 at    0.000000    0.000000    0.166667 (in units of recip. lattice)

  ESTIMATED overall HOMO-LUMO gap:      0.15061827 eV between HOMO at k-point 3 and LUMO at k-point 2
  | This appears to be an indirect band gap.
  | Smallest direct gap :      0.78090642 eV for k_point 2 at    0.000000    0.000000    0.166667 (in units of recip. lattice)
  The gap value is rather small. This may be a metal or a small-gap semiconductor.
  Since we use a finite k-point grid, a DOS and/or band structure plot is required
  for an unambiguous assignment.

  Checking to see if s.c.f. parameters should be adjusted.
  Adjusted the Pulay mixing parameter (charge_mix_param) for an expected low-gap system. New value:   0.020000 .
  Adjusted the occupation broadening width for an expected low-gap system. New value:      0.05000000 eV.

  Total energy components:
  | Sum of eigenvalues            :        -420.96009572 Ha      -11454.90702370 eV
  | XC energy correction          :         -58.55922245 Ha       -1593.47751817 eV
  | XC potential correction       :          75.56838312 Ha        2056.32032912 eV
  | Free-atom electrostatic energy:        -321.68620047 Ha       -8753.52688932 eV
  | Hartree energy correction     :          -1.82212001 Ha         -49.58240831 eV
  | Entropy correction            :          -0.00000418 Ha          -0.00011366 eV
  | ---------------------------
  | Total energy                  :        -727.45925553 Ha      -19795.17351039 eV
  | Total energy, T -> 0          :        -727.45925971 Ha      -19795.17362405 eV  <-- do not rely on this value for anything but (periodic) metals
  | Electronic free energy        :        -727.45926389 Ha      -19795.17373771 eV

  Derived energy quantities:
  | Kinetic energy                :         730.80141722 Ha       19886.11835712 eV
  | Electrostatic energy          :       -1399.70145030 Ha      -38087.81434933 eV
  | Energy correction for multipole
  | error in Hartree potential    :           0.00294849 Ha           0.08023249 eV
  | Sum of eigenvalues per atom                           :       -1431.86337796 eV
  | Total energy (T->0) per atom                          :       -2474.39670301 eV  <-- do not rely on this value for anything but (periodic) metals
  | Electronic free energy per atom                       :       -2474.39671721 eV

  Self-consistency convergence accuracy:
  | Change of charge density      :  0.1714E+00
  | Change of sum of eigenvalues  :  0.4565E+02 eV
  | Change of total energy        :  0.7495E+00 eV

  End self-consistency iteration #     2       :  max(cpu_time)    wall_clock(cpu1)
  | Time for this iteration                    :        1.326 s           1.326 s
  | Charge density update                      :        0.638 s           0.639 s
  | Density mixing & preconditioning           :        0.124 s           0.124 s
  | Hartree multipole update                   :        0.002 s           0.001 s
  | Hartree multipole summation                :        0.180 s           0.181 s
  | Integration                                :        0.349 s           0.349 s
  | Solution of K.-S. eqns.                    :        0.031 s           0.032 s
  | Total energy evaluation                    :        0.000 s           0.000 s

  Partial memory accounting:
  | Current value for overall tracked memory usage on task 0  :           5.119 MB
  | Peak value for overall tracked memory usage on task 0     :          16.407 MB after allocating gradient_basis_wave
  | Largest tracked array allocation on task 0 so far         :           6.153 MB  when allocating hamiltonian_shell
  Note:  These values currently only include a subset of arrays which are explicitly tracked.
  The "true" memory usage will be greater.
------------------------------------------------------------

------------------------------------------------------------
          Begin self-consistency iteration #    3

  Date     :  20220721, Time     :  124501.393
------------------------------------------------------------
  Evaluating new KS density using the density matrix
  Evaluating density matrix
  Time summed over all CPUs for getting density from density matrix: real work       12.316 s, elapsed       12.846 s
  Integration grid: deviation in total charge (<rho> - N_e) =  -1.016076E-12
  Pulay mixing of updated and previous charge densities.

  Evaluating partitioned Hartree potential by multipole expansion.
  | Analytical far-field extrapolation by fixed multipoles:
  | Hartree multipole sum: apparent total charge =  -0.818255E-03
  Summing up the Hartree potential.
  Time summed over all CPUs for potential: real work        3.387 s, elapsed        3.549 s
  | RMS charge density error from multipole expansion :   0.118199E-01
  | Average real-space part of the electrostatic potential :     -0.09369787 eV

  Integrating Hamiltonian matrix: batch-based integration.
  Time summed over all CPUs for integration: real work        6.515 s, elapsed        6.900 s

  Updating Kohn-Sham eigenvalues and eigenvectors using ELSI and the ELPA eigensolver.
  Finished Cholesky decomposition
  | Time :     0.000 s
  Finished transformation to standard eigenproblem
  | Time :     0.001 s
  Starting LAPACK eigensolver
  Finished solving standard eigenproblem
  | Time :     0.002 s
  Finished back-transformation of eigenvectors
  | Time :     0.000 s

  Obtaining occupation numbers and chemical potential using ELSI.
  | Chemical potential (Fermi level):   -10.71609075eV
  What follows are estimated values for band gap, HOMO, LUMO, etc.
  | They are estimated on a discrete k-point grid and not necessarily exact.
  | For converged numbers, create a DOS and/or band structure plot on a denser k-grid.

  Highest occupied state (VBM) at    -10.79126775 eV (relative to internal zero)
  | Occupation number:      1.96652393
  | K-point:       3 at    0.000000    0.000000    0.333333 (in units of recip. lattice)

  Lowest unoccupied state (CBM) at   -10.64090446 eV (relative to internal zero)
  | Occupation number:      0.03345421
  | K-point:       2 at    0.000000    0.000000    0.166667 (in units of recip. lattice)

  ESTIMATED overall HOMO-LUMO gap:      0.15036329 eV between HOMO at k-point 3 and LUMO at k-point 2
  | This appears to be an indirect band gap.
  | Smallest direct gap :      0.78051388 eV for k_point 2 at    0.000000    0.000000    0.166667 (in units of recip. lattice)
  The gap value is rather small. This may be a metal or a small-gap semiconductor.
  Since we use a finite k-point grid, a DOS and/or band structure plot is required
  for an unambiguous assignment.

  Total energy components:
  | Sum of eigenvalues            :        -421.09218043 Ha      -11458.50123160 eV
  | XC energy correction          :         -58.54822093 Ha       -1593.17815161 eV
  | XC potential correction       :          75.55394615 Ha        2055.92747928 eV
  | Free-atom electrostatic energy:        -321.68620047 Ha       -8753.52688932 eV
  | Hartree energy correction     :          -1.68647699 Ha         -45.89137395 eV
  | Entropy correction            :          -0.00000198 Ha          -0.00005381 eV
  | ---------------------------
  | Total energy                  :        -727.45913267 Ha      -19795.17016721 eV
  | Total energy, T -> 0          :        -727.45913465 Ha      -19795.17022102 eV  <-- do not rely on this value for anything but (periodic) metals
  | Electronic free energy        :        -727.45913663 Ha      -19795.17027483 eV

  Derived energy quantities:
  | Kinetic energy                :         730.58287238 Ha       19880.17144955 eV
  | Electrostatic energy          :       -1399.49378412 Ha      -38082.16346514 eV
  | Energy correction for multipole
  | error in Hartree potential    :           0.00366176 Ha           0.09964163 eV
  | Sum of eigenvalues per atom                           :       -1432.31265395 eV
  | Total energy (T->0) per atom                          :       -2474.39627763 eV  <-- do not rely on this value for anything but (periodic) metals
  | Electronic free energy per atom                       :       -2474.39628435 eV

  Self-consistency convergence accuracy:
  | Change of charge density      :  0.4182E-01
[...]
  | Sum of eigenvalues            :        -421.38351632 Ha      -11466.42888459 eV
  | XC energy correction          :         -58.53054349 Ha       -1592.69712402 eV
  | XC potential correction       :          75.52969068 Ha        2055.26745427 eV
  | Free-atom electrostatic energy:        -321.68620047 Ha       -8753.52688932 eV
  | Hartree energy correction     :          -1.38833339 Ha         -37.77847377 eV
  | Entropy correction            :          -0.00000200 Ha          -0.00005444 eV
  | ---------------------------
  | Total energy                  :        -727.45890300 Ha      -19795.16391743 eV
  | Total energy, T -> 0          :        -727.45890500 Ha      -19795.16397187 eV  <-- do not rely on this value for anything but (periodic) metals
  | Electronic free energy        :        -727.45890700 Ha      -19795.16402632 eV

  Derived energy quantities:
  | Kinetic energy                :         730.28301376 Ha       19872.01188130 eV
  | Electrostatic energy          :       -1399.21137327 Ha      -38074.47867471 eV
  | Energy correction for multipole
  | error in Hartree potential    :           0.00518452 Ha           0.14107798 eV
  | Sum of eigenvalues per atom                           :       -1433.30361057 eV
  | Total energy (T->0) per atom                          :       -2474.39549648 eV  <-- do not rely on this value for anything but (periodic) metals
  | Electronic free energy per atom                       :       -2474.39550329 eV

  atomic forces [eV/Ang]:
  -----------------------
  atom #    1
   Hellmann-Feynman              :  0.228866E-06  0.226409E-02  0.308748E-06
   Ionic forces                  :  0.000000E+00  0.000000E+00  0.000000E+00
   Multipole                     : -0.115888E-08 -0.377732E-04  0.420876E-09
   Pulay + GGA                   : -0.188317E-07 -0.217032E-02  0.152377E-04
   ----------------------------------------------------------------
   Total forces(   1)            :  0.208875E-06  0.560022E-04  0.155469E-04
  atom #    2
   Hellmann-Feynman              : -0.228866E-06 -0.226409E-02 -0.337583E-06
   Ionic forces                  :  0.000000E+00  0.000000E+00  0.000000E+00
   Multipole                     :  0.115888E-08  0.377732E-04 -0.254980E-09
   Pulay + GGA                   :  0.188323E-07  0.217032E-02 -0.961497E-05
   ----------------------------------------------------------------
   Total forces(   2)            : -0.208875E-06 -0.560022E-04 -0.995281E-05
  atom #    3
   Hellmann-Feynman              : -0.289006E-06 -0.283796E-02  0.261498E+00
   Ionic forces                  :  0.000000E+00  0.000000E+00  0.000000E+00
   Multipole                     : -0.324314E-08  0.526492E-03  0.195467E-01
   Pulay + GGA                   : -0.840184E-08  0.231066E-02  0.540730E-01
   ----------------------------------------------------------------
   Total forces(   3)            : -0.300651E-06 -0.810608E-06  0.335118E+00
  atom #    4
   Hellmann-Feynman              :  0.289008E-06  0.283796E-02  0.261498E+00
   Ionic forces                  :  0.000000E+00  0.000000E+00  0.000000E+00
   Multipole                     :  0.324314E-08 -0.526492E-03  0.195467E-01
   Pulay + GGA                   :  0.841637E-08 -0.231066E-02  0.540730E-01
   ----------------------------------------------------------------
   Total forces(   4)            :  0.300668E-06  0.810562E-06  0.335118E+00
  atom #    5
   Hellmann-Feynman              :  0.289007E-06  0.283796E-02 -0.261498E+00
   Ionic forces                  :  0.000000E+00  0.000000E+00  0.000000E+00
   Multipole                     :  0.324314E-08 -0.526492E-03 -0.195467E-01
   Pulay + GGA                   :  0.840470E-08 -0.231066E-02 -0.540729E-01
   ----------------------------------------------------------------
   Total forces(   5)            :  0.300654E-06  0.810674E-06 -0.335118E+00
  atom #    6
   Hellmann-Feynman              : -0.289007E-06 -0.283796E-02 -0.261498E+00
   Ionic forces                  :  0.000000E+00  0.000000E+00  0.000000E+00
   Multipole                     : -0.324314E-08  0.526492E-03 -0.195467E-01
   Pulay + GGA                   : -0.839897E-08  0.231066E-02 -0.540729E-01
   ----------------------------------------------------------------
   Total forces(   6)            : -0.300650E-06 -0.810630E-06 -0.335118E+00
  atom #    7
   Hellmann-Feynman              :  0.143338E-06 -0.815507E-02  0.135575E-04
   Ionic forces                  :  0.000000E+00  0.000000E+00  0.000000E+00
   Multipole                     : -0.128913E-08 -0.933238E-03  0.148327E-07
   Pulay + GGA                   : -0.786483E-06  0.882384E-02  0.180764E-03
   ----------------------------------------------------------------
   Total forces(   7)            : -0.644433E-06 -0.264472E-03  0.194336E-03
  atom #    8
   Hellmann-Feynman              : -0.142323E-06  0.815507E-02 -0.142796E-04
   Ionic forces                  :  0.000000E+00  0.000000E+00  0.000000E+00
   Multipole                     :  0.128981E-08  0.933238E-03 -0.142568E-07
   Pulay + GGA                   :  0.786076E-06 -0.882384E-02  0.403340E-04
   ----------------------------------------------------------------
   Total forces(   8)            :  0.645042E-06  0.264468E-03  0.260402E-04


  Self-consistency convergence accuracy:
  | Change of charge density      :  0.6473E-06
  | Change of sum of eigenvalues  : -0.9516E-06 eV
  | Change of total energy        : -0.1609E-09 eV
  | Change of forces              :  0.9956E-05 eV/A

  Writing Kohn-Sham eigenvalues.
  K-point:       1 at    0.000000    0.000000    0.000000 (in units of recip. lattice)

  State    Occupation    Eigenvalue [Ha]    Eigenvalue [eV]
      1       2.00000         -76.421594        -2079.53739
      2       2.00000         -76.421594        -2079.53739
      3       2.00000          -6.463496         -175.88067
      4       2.00000          -6.463495         -175.88065
      5       2.00000          -4.676250         -127.24723
      6       2.00000          -4.676249         -127.24721
      7       2.00000          -4.675539         -127.22788
      8       2.00000          -4.675539         -127.22788
      9       2.00000          -4.675537         -127.22784
     10       2.00000          -4.675537         -127.22784
     11       2.00000          -2.062780          -56.13109
     12       2.00000          -2.055374          -55.92958
     13       2.00000          -2.050331          -55.79235
     14       2.00000          -2.044847          -55.64312
     15       2.00000          -2.041892          -55.56271
     16       2.00000          -2.040450          -55.52346
     17       2.00000          -0.803568          -21.86621
     18       2.00000          -0.780479          -21.23792
     19       2.00000          -0.595272          -16.19816
     20       2.00000          -0.432792          -11.77686
     21       2.00000          -0.422135          -11.48687
     22       2.00000          -0.422131          -11.48678
     23       0.00044          -0.389473          -10.59811
     24       0.00041          -0.389448          -10.59741
     25       0.00000          -0.278523           -7.57899
     26       0.00000          -0.255890           -6.96311
     27       0.00000          -0.255883           -6.96294
     28       0.00000          -0.236606           -6.43839
     29       0.00000          -0.236602           -6.43826
     30       0.00000          -0.155123           -4.22110
     31       0.00000          -0.155086           -4.22011
     32       0.00000          -0.108995           -2.96590
     33       0.00000          -0.067805           -1.84507
     34       0.00000          -0.056550           -1.53880
     35       0.00000          -0.034522           -0.93940
     36       0.00000          -0.034512           -0.93912
     37       0.00000           0.141074            3.83881
     38       0.00000           0.166532            4.53157
     39       0.00000           0.166541            4.53182

  What follows are estimated values for band gap, HOMO, LUMO, etc.
  | They are estimated on a discrete k-point grid and not necessarily exact.
  | For converged numbers, create a DOS and/or band structure plot on a denser k-grid.

  Highest occupied state (VBM) at    -10.79731991 eV (relative to internal zero)
  | Occupation number:      1.96606992
  | K-point:       3 at    0.000000    0.000000    0.333333 (in units of recip. lattice)

  Lowest unoccupied state (CBM) at   -10.64733597 eV (relative to internal zero)
  | Occupation number:      0.03389783
  | K-point:       2 at    0.000000    0.000000    0.166667 (in units of recip. lattice)

  ESTIMATED overall HOMO-LUMO gap:      0.14998395 eV between HOMO at k-point 3 and LUMO at k-point 2
  | This appears to be an indirect band gap.
  | Smallest direct gap :      0.77911369 eV for k_point 2 at    0.000000    0.000000    0.166667 (in units of recip. lattice)
  The gap value is rather small. This may be a metal or a small-gap semiconductor.
  Since we use a finite k-point grid, a DOS and/or band structure plot is required
  for an unambiguous assignment.

  Self-consistency cycle converged.

  End self-consistency iteration #    21       :  max(cpu_time)    wall_clock(cpu1)
  | Time for this iteration                    :        6.669 s           6.669 s
  | Charge density & force component update    :        5.767 s           5.767 s
  | Density mixing                             :        0.001 s           0.001 s
  | Hartree multipole update                   :        0.002 s           0.002 s
  | Hartree multipole summation                :        0.512 s           0.512 s
  | Integration                                :        0.348 s           0.348 s
  | Solution of K.-S. eqns.                    :        0.036 s           0.036 s
  | Total energy evaluation                    :        0.001 s           0.001 s

  Partial memory accounting:
  | Current value for overall tracked memory usage on task 0  :           5.119 MB
  | Peak value for overall tracked memory usage on task 0     :          28.391 MB after allocating wave_pulay
  | Largest tracked array allocation on task 0 so far         :           6.153 MB  when allocating hamiltonian_shell
  Note:  These values currently only include a subset of arrays which are explicitly tracked.
  The "true" memory usage will be greater.
------------------------------------------------------------
  |------------------------------------------
  | Final ELSI Output
  |------------------------------------------
  | Number of basis functions :          102
  | Number of electrons       :         48.0
  | Number of states          :           39
  | Solver                    :         ELPA
  | Parallel mode             :  SINGLE_PROC
  | Matrix format             :  BLACS_DENSE
  |------------------------------------------
  | ELSI Project (c)  elsi-interchange.org
  |------------------------------------------
  Removing unitary transformations (pure translations, rotations) from forces on atoms.
  Atomic forces before filtering:
  | Net force on center of mass :   0.631077E-09 -0.349244E-08  0.226290E-03 eV/A
  Atomic forces after filtering:
  | Net force on center of mass :   0.000000E+00  0.000000E+00 -0.863501E-17 eV/A

  Energy and forces in a compact form:
  | Total energy uncorrected      :         -0.197951639174327E+05 eV
  | Total energy corrected        :         -0.197951639718746E+05 eV  <-- do not rely on this value for anything but (periodic) metals
  | Electronic free energy        :         -0.197951640263165E+05 eV
  Total atomic forces (unitary forces cleaned) [eV/Ang]:
  |   1          0.208796540147622E-06          0.560026099558580E-04         -0.127394098010770E-04
  |   2         -0.208953420081124E-06         -0.560017420074137E-04         -0.382391196037663E-04
  |   3         -0.300730254567580E-06         -0.810171347768501E-06          0.335089928944601E+00
  |   4          0.300588760495531E-06          0.810998069140536E-06          0.335089808691668E+00
  |   5          0.300575456342880E-06          0.811110893341386E-06         -0.335146341492851E+00
  |   6         -0.300728416897117E-06         -0.810193901370688E-06         -0.335146221214202E+00
  |   7         -0.644512240097680E-06         -0.264471282602024E-03          0.166049757992103E-03
  |   8          0.644963574657467E-06          0.264468670940237E-03         -0.224615780227649E-05

  ------------------------------------ 
  Start decomposition of the XC Energy 
  ------------------------------------ 
  X and C from original XC functional choice 
  Hartree-Fock Energy :          0.000000000 Ha              0.000000000 eV
  X Energy            :        -56.767937245 Ha          -1544.734167645 eV
  C Energy            :         -1.762606250 Ha            -47.962956377 eV
  Total XC Energy     :        -58.530543494 Ha          -1592.697124023 eV
  ------------------------------------ 
  LDA X and C from self-consistent density 
  X Energy LDA        :        -52.322024263 Ha          -1423.754720041 eV
  C Energy LDA        :         -3.437399845 Ha            -93.536408871 eV
  ------------------------------------ 
  End decomposition of the XC Energy 
  ------------------------------------ 

------------------------------------------------------------

------------------------------------------------------------------------------
  Final output of selected total energy values:

  The following output summarizes some interesting total energy values
  at the end of a run (AFTER all relaxation, molecular dynamics, etc.).

  | Total energy of the DFT / Hartree-Fock s.c.f. calculation      :         -19795.163917433 eV
  | Final zero-broadening corrected energy (caution - metals only) :         -19795.163971875 eV
  | For reference only, the value of 1 Hartree used in FHI-aims is :             27.211384500 eV

  Before relying on these values, please be sure to understand exactly which
  total energy value is referred to by a given number. Different objects may
  all carry the same name 'total energy'. Definitions:

  Total energy of the DFT / Hartree-Fock s.c.f. calculation:
  | Note that this energy does not include ANY quantities calculated after the
  | s.c.f. cycle, in particular not ANY RPA, MP2, etc. many-body perturbation terms.

  Final zero-broadening corrected energy:
  | For metallic systems only, a broadening of the occupation numbers at the Fermi
  | level can be extrapolated back to zero broadening by an electron-gas inspired
  | formula. For all systems that are not real metals, this value can be
  | meaningless and should be avoided.

------------------------------------------------------------------------------
  Methods described in the following list of references were used in this FHI-aims run.
  If you publish the results, please make sure to cite these reference if they apply.
  FHI-aims is an academic code, and for our developers (often, Ph.D. students
  and postdocs), scientific credit in the community is essential.
  Thank you for helping us!

  For any use of FHI-aims, please cite:

    Volker Blum, Ralf Gehrke, Felix Hanke, Paula Havu, Ville Havu,
    Xinguo Ren, Karsten Reuter, and Matthias Scheffler
    'Ab initio molecular simulations with numeric atom-centered orbitals'
    Computer Physics Communications 180, 2175-2196 (2009)
    http://dx.doi.org/10.1016/j.cpc.2009.06.022


  The provided symmetry information was generated with SPGlib:

    Atsushi Togo, Yusuke Seto, Dimitar Pashov
    SPGlib 1.7.3 obtained from http://spglib.sourceforge.net
    Copyright (C) 2008 Atsushi Togo


  The scalable eigensolver library ELPA was used in your run.
  ELPA is essential especially for large systems on hundreds or thousands of CPUs.
  For ELPA, please cite:

    Andreas Marek, Volker Blum, Rainer Johanni, Ville Havu, Bruno Lang,
    Thomas Auckenthaler, Alexander Heinecke, Hans-Joachim Bungartz, and Hermann Lederer,
    'The ELPA Library - Scalable Parallel Eigenvalue Solutions
    for Electronic Structure Theory and Computational Science'
    The Journal of Physics: Condensed Matter 26, 213201 (2014).
    http://dx.doi.org/10.1088/0953-8984/26/21/213201


  The ELSI infrastructure was used in your run to solve the Kohn-Sham electronic structure.
  Please check out http://elsi-interchange.org to learn more.
  If scalability is important for your project, please acknowledge ELSI by citing:

    V. W-z. Yu, F. Corsetti, A. Garcia, W. P. Huhn, M. Jacquelin, W. Jia,
    B. Lange, L. Lin, J. Lu, W. Mi, A. Seifitokaldani, A. Vazquez-Mayagoitia,
    C. Yang, H. Yang, and V. Blum
    'ELSI: A unified software interface for Kohn-Sham electronic structure solvers'
    Computer Physics Communications 222, 267-285 (2018).
    http://dx.doi.org/10.1016/j.cpc.2017.09.007


  For the real-space grid partitioning and parallelization used in this calculation, please cite:

    Ville Havu, Volker Blum, Paula Havu, and Matthias Scheffler,
    'Efficient O(N) integration for all-electron electronic structure calculation'
    'using numerically tabulated basis functions'
    Journal of Computational Physics 228, 8367-8379 (2009).
    http://dx.doi.org/10.1016/j.jcp.2009.08.008

  Of course, there are many other important community references, e.g., those cited in the
  above references. Our list is limited to references that describe implementations in the
  FHI-aims code. The reason is purely practical (length of this list) - please credit others as well.

------------------------------------------------------------
          Leaving FHI-aims.
          Date     :  20220721, Time     :  124532.457

          Computational steps:
          | Number of self-consistency cycles          :           21
          | Number of SCF (re)initializations          :            1

          Detailed time accounting                     :  max(cpu_time)    wall_clock(cpu1)
          | Total time                                 :       35.415 s          35.424 s
          | Preparation time                           :        0.443 s           0.435 s
          | Boundary condition initalization           :        0.079 s           0.079 s
          | Grid partitioning                          :        0.039 s           0.039 s
          | Preloading free-atom quantities on grid    :        0.008 s           0.009 s
          | Free-atom superposition energy             :        0.027 s           0.027 s
          | Total time for integrations                :        7.950 s           7.950 s
          | Total time for solution of K.-S. equations :        0.781 s           0.783 s
          | Total time for density & force components  :       18.767 s          18.766 s
          | Total time for mixing & preconditioning    :        2.357 s           2.358 s
          | Total time for Hartree multipole update    :        0.028 s           0.029 s
          | Total time for Hartree multipole sum       :        4.447 s           4.458 s
          | Total time for total energy evaluation     :        0.006 s           0.033 s

          Partial memory accounting:
          | Residual value for overall tracked memory usage across tasks :           0.000 MB (should be 0.000 MB)
          | Peak values for overall tracked memory usage (after allocating wave_pulay):
          |   Minimum:       27.854 MB (on task  8)
          |   Maximum:       29.776 MB (on task  4)
          |   Average:       28.653 MB
          | Largest tracked array allocation (hamiltonian_shell):
          |   Minimum:        5.903 MB (on task  8)
          |   Maximum:        6.712 MB (on task  4)
          |   Average:        6.247 MB
          Note:  These values currently only include a subset of arrays which are explicitly tracked.
          The "true" memory usage will be greater.

          Have a nice day.
------------------------------------------------------------
