  MPI-parallelism will be employed.
------------------------------------------------------------
          Invoking FHI-aims ...
          Version 171221_1
          Compiled on 2020/09/23 at 19:46:43 on host login.service.

          When using FHI-aims, please cite the following reference:

          Volker Blum, Ralf Gehrke, Felix Hanke, Paula Havu,
          Ville Havu, Xinguo Ren, Karsten Reuter, and Matthias Scheffler,
          'Ab Initio Molecular Simulations with Numeric Atom-Centered Orbitals',
          Computer Physics Communications 180, 2175-2196 (2009)

          For any questions about FHI-aims, please visit the aimsclub website
          with its forums and wiki. Contributions to both the forums and the
          wiki are warmly encouraged - they are for you, and everyone is welcome there.

------------------------------------------------------------



  Date     :  20220721, Time     :  124558.876
  Time zero on CPU 1             :   0.830880000000000E-01  s.
  Internal wall clock time zero  :           427639558.876  s.

  FHI-aims created a unique identifier for this run for later identification
  aims_uuid : 094C9CA7-1A75-4D57-A0B3-8DC88CD1F16B

  Using       20 parallel tasks.
  Task        0 on host node062 reporting.
  Task        1 on host node062 reporting.
  Task        2 on host node062 reporting.
  Task        3 on host node062 reporting.
  Task        4 on host node062 reporting.
  Task        5 on host node062 reporting.
  Task        6 on host node062 reporting.
  Task        7 on host node062 reporting.
  Task        8 on host node062 reporting.
  Task        9 on host node062 reporting.
  Task       10 on host node062 reporting.
  Task       11 on host node062 reporting.
  Task       12 on host node062 reporting.
  Task       13 on host node062 reporting.
  Task       14 on host node062 reporting.
  Task       15 on host node062 reporting.
  Task       16 on host node062 reporting.
  Task       17 on host node062 reporting.
  Task       18 on host node062 reporting.
  Task       19 on host node062 reporting.

  Performing system and environment tests:
  *** Environment variable OMP_NUM_THREADS is not set
  *** For performance reasons you might want to set it to 1
  | Maximum stacksize for task 0: unlimited
  | Maximum stacksize for task 1: unlimited
  | Maximum stacksize for task 2: unlimited
  | Maximum stacksize for task 3: unlimited
  | Maximum stacksize for task 4: unlimited
  | Maximum stacksize for task 5: unlimited
  | Maximum stacksize for task 6: unlimited
  | Maximum stacksize for task 7: unlimited
  | Maximum stacksize for task 8: unlimited
  | Maximum stacksize for task 9: unlimited
  | Maximum stacksize for task 10: unlimited
  | Maximum stacksize for task 11: unlimited
  | Maximum stacksize for task 12: unlimited
  | Maximum stacksize for task 13: unlimited
  | Maximum stacksize for task 14: unlimited
  | Maximum stacksize for task 15: unlimited
  | Maximum stacksize for task 16: unlimited
  | Maximum stacksize for task 17: unlimited
  | Maximum stacksize for task 18: unlimited
  | Maximum stacksize for task 19: unlimited
  | Current stacksize for task 0: unlimited
  | Current stacksize for task 1: unlimited
  | Current stacksize for task 2: unlimited
  | Current stacksize for task 3: unlimited
  | Current stacksize for task 4: unlimited
  | Current stacksize for task 5: unlimited
  | Current stacksize for task 6: unlimited
  | Current stacksize for task 7: unlimited
  | Current stacksize for task 8: unlimited
  | Current stacksize for task 9: unlimited
  | Current stacksize for task 10: unlimited
  | Current stacksize for task 11: unlimited
  | Current stacksize for task 12: unlimited
  | Current stacksize for task 13: unlimited
  | Current stacksize for task 14: unlimited
  | Current stacksize for task 15: unlimited
  | Current stacksize for task 16: unlimited
  | Current stacksize for task 17: unlimited
  | Current stacksize for task 18: unlimited
  | Current stacksize for task 19: unlimited
  | Checking for scalapack...
  | Testing pdtran()...
  | All pdtran() tests passed.

  Obtaining array dimensions for all initial allocations:
  
  -----------------------------------------------------------------------
  Parsing control.in (first pass over file, find array dimensions only).
  The contents of control.in will be repeated verbatim below
  unless switched off by setting 'verbatim_writeout .false.' .
  in the first line of control.in .
  -----------------------------------------------------------------------
  
  #===============================================================================
  # FHI-aims file: ./control.in
  # Created using the Atomic Simulation Environment (ASE)
  # Wed Mar 24 12:41:28 2021
  #===============================================================================
  xc                                 pbe
  sc_accuracy_etot                   1e-06
  sc_accuracy_eev                    0.001
  sc_accuracy_rho                    1e-06
  sc_accuracy_forces                 0.0001
  friction_temperature               300  # default 300
  
    k_grid                           6 6 6
  
  
  
  ################################################################################
  #
  #  FHI-aims code project
  #  VB, Fritz-Haber Institut, 2009
  #
  #  Suggested "light" defaults for Li atom (to be pasted into control.in file)
  #  Be sure to double-check any results obtained with these settings for post-processing,
  #  e.g., with the "tight" defaults and larger basis sets.
  #
  ################################################################################
    species        Li
  #     global species definitions
      nucleus             3
      mass                6.941
  #
      l_hartree           4
  #
      cut_pot             3.5  1.5  1.0
      basis_dep_cutoff    1e-4
  #
      radial_base         29 5.0
      radial_multiplier   1
      angular_grids       specified
        division   0.4484  110
        division   0.5659  194
        division   0.6315  302
  #      division   0.6662  434
  #      division   0.8186  590
  #      division   0.9037  770
  #      division   6.2760  974
  #      outer_grid   974
        outer_grid   302
  ################################################################################
  #
  #  Definition of "minimal" basis
  #
  ################################################################################
  #     valence basis states
      valence      2  s   1.
  #     ion occupancy
      ion_occ      1  s   2.
  ################################################################################
  #
  #  Suggested additional basis functions. For production calculations,
  #  uncomment them one after another (the most important basis functions are
  #  listed first).
  #
  #  Constructed for dimers: 1.80 A, 2.25 A, 2.75 A, 3.50 A, 4.50 A
  #
  ################################################################################
  #  "First tier" - improvements: -189.23 meV to -6.35 meV
       hydro 2 p 1.6
       hydro 2 s 2
       hydro 3 d 2.6
  #  "Second tier" - improvements: -4.69 meV to -0.41 meV
  #     hydro 3 p 4.6
  #     hydro 2 p 1.8
  #     hydro 3 s 6.2
  #     hydro 4 d 4.7
  #     hydro 4 f 4.1
  #  "Third tier" - improvements: -0.20 meV to -0.15 meV
  #     hydro 4 d 0.95
  #     hydro 3 p 6.2
  #     hydro 3 s 1.7
  #  Further functions, listed for completeness
  #     VB: The following functions are only listed for completeness; test very
  #         carefully before any kind of production use. From the point of view
  #         of the basis construction, their main role is to fill up space,
  #         and they are solely determined by the location of the cutoff potential.
  #     hydro 3 p 0.1  # -0.15 meV
  #     hydro 4 d 5    # -0.12 meV
  #     hydro 4 f 0.1  # -0.14 meV
  #     hydro 5 g 0.1  # -0.06 meV
  
  
  ################################################################################
  #
  #  FHI-aims code project
  #  VB, Fritz-Haber Institut, 2010
  #
  #  Suggested "light" defaults for P atom (to be pasted into control.in file)
  #  Be sure to double-check any results obtained with these settings for post-processing,
  #  e.g., with the "tight" defaults and larger basis sets.
  #
  ################################################################################
    species        P
  #     global species definitions
      nucleus             15
      mass                30.973762
  #
      l_hartree           4
  #
      cut_pot             3.5          1.5  1.0
      basis_dep_cutoff    1e-4
  #
      radial_base         43 5.0
      radial_multiplier   1
      angular_grids       specified
        division   0.5527   50
        division   0.8801  110
        division   1.1447  194
        division   1.3165  302
  #      division   1.4113  434
  #      division   1.4781  590
  #      division   1.5482  770
  #      division   1.5845  974
  #      division   2.2606 1202
        outer_grid  302
  ################################################################################
  #
  #  Definition of "minimal" basis
  #
  ################################################################################
  #     valence basis states
      valence      3  s   2.
      valence      3  p   3.
  #     ion occupancy
      ion_occ      3  s   1.
      ion_occ      3  p   2.
  ################################################################################
  #
  #  Suggested additional basis functions. For production calculations,
  #  uncomment them one after another (the most important basis functions are
  #  listed first).
  #
  #  Constructed for dimers: 1.625 A, 1.875 A, 2.5 A, 3.25 A, 4.0 A
  #
  ################################################################################
  #  "First tier" - improvements: -726.20 meV to -35.91 meV
       ionic 3 d auto
       ionic 3 p auto
  #     hydro 4 f 6.2
  #     hydro 5 g 8.6
       ionic 3 s auto
  #  "Second tier" - improvements: -16.02 meV to -1.71 meV
  #     hydro 4 d 6.2
  #     hydro 4 p 9.2
  #     hydro 5 f 9.8
  #     hydro 1 s 0.7
  #     hydro 5 g 13.2
  #  "Third tier" - improvements: -1.82 meV to -0.20 meV
  #     hydro 3 p 2.5
  #     hydro 4 d 6.4
  #     hydro 5 f 11.2
  #     hydro 2 s 1.5
  #  "Fourth tier" - improvements: -0.91 meV to -0.17 meV
  #     hydro 3 d 16.8
  #     hydro 5 g 18
  #     hydro 4 p 4.5
  #     hydro 3 s 2.1
  #  Further basis functions that fell out of the optimization - < -0.09 meV
  #     hydro 4 p 10.4
  #     hydro 4 d 17.6
  #     hydro 4 s 11.2
  ################################################################################
  #
  #  FHI-aims code project
  #  VB, Fritz-Haber Institut, 2009
  #
  #  Suggested "light" defaults for S atom (to be pasted into control.in file)
  #  Be sure to double-check any results obtained with these settings for post-processing,
  #  e.g., with the "tight" defaults and larger basis sets.
  #
  ################################################################################
    species        S
  #     global species definitions
      nucleus             16
      mass                32.065
  #
      l_hartree           4
  #
      cut_pot             3.5          1.5  1.0
      basis_dep_cutoff    1e-4
  #
      radial_base         44 5.0
      radial_multiplier   1
      angular_grids       specified
        division   0.4665  110
        division   0.5810  194
        division   0.7139  302
  #      division   0.8274  434
  #      division   0.9105  590
  #      division   1.0975  770
  #      division   1.2028  974
  #      outer_grid  974
        outer_grid  302
  ################################################################################
  #
  #  Definition of "minimal" basis
  #
  ################################################################################
  #     valence basis states
      valence      3  s   2.
      valence      3  p   4.
  #     ion occupancy
      ion_occ      3  s   1.
      ion_occ      3  p   3.
  ################################################################################
  #
  #  Suggested additional basis functions. For production calculations,
  #  uncomment them one after another (the most important basis functions are
  #  listed first).
  #
  #  Constructed for dimers: 1.6 A, 1.9 A, 2.5 A, 3.25 A, 4.0 A
  #
  ################################################################################
  #  "First tier" - improvements: -652.81 meV to -45.53 meV
       ionic 3 d auto
       hydro 2 p 1.8
  #     hydro 4 f 7
       ionic 3 s auto
  #  "Second tier" - improvements: -30.20 meV to -1.74 meV
  #     hydro 4 d 6.2
  #     hydro 5 g 10.8
  #     hydro 4 p 4.9
  #     hydro 5 f 10
  #     hydro 1 s 0.8
  #  "Third tier" - improvements: -1.04 meV to -0.20 meV
  #     hydro 3 d 3.9
  #     hydro 3 d 2.7
  #     hydro 5 g 12
  #     hydro 4 p 10.4
  #     hydro 5 f 12.4
  #     hydro 2 s 1.9
  #  "Fourth tier" - improvements: -0.35 meV to -0.06 meV
  #     hydro 4 d 10.4
  #     hydro 4 p 7.2
  #     hydro 4 d 10
  #     hydro 5 g 19.2
  #     hydro 4 s 12
  
  ################################################################################
  #
  #  FHI-aims code project
  #  VB, Fritz-Haber Institut, 2009
  #
  #  Suggested "light" defaults for Cl atom (to be pasted into control.in file)
  #  Be sure to double-check any results obtained with these settings for post-processing,
  #  e.g., with the "tight" defaults and larger basis sets.
  #
  ################################################################################
    species        Cl
  #     global species definitions
      nucleus             17
      mass                35.453
  #
      l_hartree           4
  #
      cut_pot             3.5          1.5  1.0
      basis_dep_cutoff    1e-4
  #
      radial_base         45 5.0
      radial_multiplier   1
      angular_grids       specified
        division   0.4412  110
        division   0.5489  194
        division   0.6734  302
  #      division   0.7794  434
  #      division   0.9402  590
  #      division   1.0779  770
  #      division   1.1792  974
  #      outer_grid  974
        outer_grid  302
  ################################################################################
  #
  #  Definition of "minimal" basis
  #
  ################################################################################
  #     valence basis states
      valence      3  s   2.
      valence      3  p   5.
  #     ion occupancy
      ion_occ      3  s   1.
      ion_occ      3  p   4.
  ################################################################################
  #
  #  Suggested additional basis functions. For production calculations,
  #  uncomment them one after another (the most important basis functions are
  #  listed first).
  #
  #  Constructed for dimers: 1.65 A, 2.0 A, 2.5 A, 3.25 A, 4.0 A
  #
  ################################################################################
  #  "First tier" - improvements: -429.57 meV to -15.03 meV
       ionic 3 d auto
       hydro 2 p 1.9
  #     hydro 4 f 7.4
       ionic 3 s auto
  #     hydro 5 g 10.4
  #  "Second tier" - improvements: -7.84 meV to -0.48 meV
  #     hydro 3 d 3.3
  #     hydro 5 f 9.8
  #     hydro 1 s 0.75
  #     hydro 5 g 11.2
  #     hydro 4 p 10.4
  #  "Third tier" - improvements: -1.00 meV to -0.12 meV
  #     hydro 4 d 12.8
  #     hydro 4 f 4.6
  #     hydro 4 d 10.8
  #     hydro 2 s 1.8
  #     hydro 3 p 3
  #  Further functions that fell out - improvements: -0.10 meV and below
  #     hydro 5 f 14.4
  #     hydro 4 s 12.8
  #     hydro 3 d 11.6
  #     hydro 4 s 4.1
  
  -----------------------------------------------------------------------
  Completed first pass over input file control.in .
  -----------------------------------------------------------------------
  
  
  -----------------------------------------------------------------------
  Parsing geometry.in (first pass over file, find array dimensions only).
  The contents of geometry.in will be repeated verbatim below
  unless switched off by setting 'verbatim_writeout .false.' .
  in the first line of geometry.in .
  -----------------------------------------------------------------------
  
  #=======================================================
  # FHI-aims file: /home/gz_fan/Documents/ML/train/battery/CCS/CCS/test/LiP/aims_geo/geometry.in.2
  # Created using the Atomic Simulation Environment (ASE)
  # Thu Jul 21 15:33:03 2022
  #=======================================================
  lattice_vector 3.6428380176000008 0.0000000000000000 0.0000000000000000
  lattice_vector -1.8214190087999995 3.1547902651133448 0.0000000000000000
  lattice_vector 0.0000000000000000 0.0000000000000000 6.5108174800000009
  atom 0.0000000000000000 0.0000000000000000 4.8831131100000009 Li
  atom 0.0000000000000000 0.0000000000000000 1.6277043700000002 Li
  atom 1.8214190270141912 1.0515967445218140 0.5476834556001201 Li
  atom -0.0000000182141897 2.1031935205915304 3.8030921956001209 Li
  atom -0.0000000182141897 2.1031935205915304 5.9631340243998805 Li
  atom 1.8214190270141912 1.0515967445218140 2.7077252843998805 Li
  atom 1.8214190270141912 1.0515967445218140 4.8831131100000009 P
  atom -0.0000000182141897 2.1031935205915304 1.6277043700000002 P
  
  -----------------------------------------------------------------------
  Completed first pass over input file geometry.in .
  -----------------------------------------------------------------------
  

  Basic array size parameters:
  | Number of species                 :        4
  | Number of atoms                   :        8
  | Number of lattice vectors         :        3
  | Max. basis fn. angular momentum   :        2
  | Max. atomic/ionic basis occupied n:        3
  | Max. number of basis fn. types    :        3
  | Max. radial fns per species/type  :        5
  | Max. logarithmic grid size        :     1362
  | Max. radial integration grid size :       45
  | Max. angular integration grid size:      302
  | Max. angular grid division number :        8
  | Radial grid for Hartree potential :     1362
  | Number of spin channels           :        1

------------------------------------------------------------
          Reading file control.in.
------------------------------------------------------------
  XC: Using PBE gradient-corrected functionals.
  Convergence accuracy of total energy:  0.1000E-05
  Convergence accuracy of sum of eigenvalues:  0.1000E-02
  Convergence accuracy of self-consistent charge density:  0.1000E-05
  Convergence accuracy of forces:  0.1000E-03
  Friction is calculated at temperature of   0.3000E+03 K
  Found k-point grid:         6         6         6
 
  Reading configuration options for species Li                  .
  | Found nuclear charge :   3.0000
  | Found atomic mass :    6.94100000000000      amu
  | Found l_max for Hartree potential  :   4
  | Found cutoff potl. onset [A], width [A], scale factor :    3.50000    1.50000    1.00000
  | Threshold for basis-dependent cutoff potential is   0.100000E-03
  | Found data for basic radial integration grid :    29 points, outermost radius =    5.000 A
  | Found multiplier for basic radial grid :   1
  | Found angular grid specification: user-specified.
  | Specified grid contains     4 separate shells.
  | Check grid settings after all constraints further below.
  | Found free-atom valence shell :  2 s   1.000
  | Found free-ion valence shell :  1 s   2.000
  | Found hydrogenic basis function :  2 p   1.600
  | Found hydrogenic basis function :  2 s   2.000
  | Found hydrogenic basis function :  3 d   2.600
  Species Li                  : Missing cutoff potential type.
  Defaulting to exp(1/x)/(1-x)^2 type cutoff potential.
  Species Li: No 'logarithmic' tag. Using default grid for free atom:
  | Default logarithmic grid data [bohr] : 0.1000E-03 0.1000E+03 0.1012E+01
  Species Li: On-site basis accuracy parameter (for Gram-Schmidt orthonormalisation) not specified.
  Using default value basis_acc =  0.1000000E-03.
  Species Li                  : Using default innermost maximum threshold i_radial=  2 for radial functions.
  Species Li                  : Default cutoff onset for free atom density etc. : 0.35000000E+01 AA.
  Species Li                  : Basic radial grid will be enhanced according to radial_multiplier =   1, to contain    29 grid points.
 
  Reading configuration options for species P                   .
  | Found nuclear charge :  15.0000
  | Found atomic mass :    30.9737620000000      amu
  | Found l_max for Hartree potential  :   4
  | Found cutoff potl. onset [A], width [A], scale factor :    3.50000    1.50000    1.00000
  | Threshold for basis-dependent cutoff potential is   0.100000E-03
  | Found data for basic radial integration grid :    43 points, outermost radius =    5.000 A
  | Found multiplier for basic radial grid :   1
  | Found angular grid specification: user-specified.
  | Specified grid contains     5 separate shells.
  | Check grid settings after all constraints further below.
  | Found free-atom valence shell :  3 s   2.000
  | Found free-atom valence shell :  3 p   3.000
  | Found free-ion valence shell :  3 s   1.000
  | Found free-ion valence shell :  3 p   2.000
  | Found ionic basis function :  3 d , default cutoff radius.
  | Found ionic basis function :  3 p , default cutoff radius.
  | Found ionic basis function :  3 s , default cutoff radius.
  Species P                   : Missing cutoff potential type.
  Defaulting to exp(1/x)/(1-x)^2 type cutoff potential.
  Species P : No 'logarithmic' tag. Using default grid for free atom:
  | Default logarithmic grid data [bohr] : 0.1000E-03 0.1000E+03 0.1012E+01
  | Will include ionic basis functions of  2.0-fold positive P                    ion.
  Species P : On-site basis accuracy parameter (for Gram-Schmidt orthonormalisation) not specified.
  Using default value basis_acc =  0.1000000E-03.
  Species P                   : Using default innermost maximum threshold i_radial=  2 for radial functions.
  Species P                   : Default cutoff onset for free atom density etc. : 0.35000000E+01 AA.
  Species P                   : Basic radial grid will be enhanced according to radial_multiplier =   1, to contain    43 grid points.
 
  Reading configuration options for species S                   .
  | Found nuclear charge :  16.0000
  | Found atomic mass :    32.0650000000000      amu
  | Found l_max for Hartree potential  :   4
  | Found cutoff potl. onset [A], width [A], scale factor :    3.50000    1.50000    1.00000
  | Threshold for basis-dependent cutoff potential is   0.100000E-03
  | Found data for basic radial integration grid :    44 points, outermost radius =    5.000 A
  | Found multiplier for basic radial grid :   1
  | Found angular grid specification: user-specified.
  | Specified grid contains     4 separate shells.
  | Check grid settings after all constraints further below.
  | Found free-atom valence shell :  3 s   2.000
  | Found free-atom valence shell :  3 p   4.000
  | Found free-ion valence shell :  3 s   1.000
  | Found free-ion valence shell :  3 p   3.000
  | Found ionic basis function :  3 d , default cutoff radius.
  | Found hydrogenic basis function :  2 p   1.800
  | Found ionic basis function :  3 s , default cutoff radius.
  Species S                   : Missing cutoff potential type.
  Defaulting to exp(1/x)/(1-x)^2 type cutoff potential.
  Species S : No 'logarithmic' tag. Using default grid for free atom:
  | Default logarithmic grid data [bohr] : 0.1000E-03 0.1000E+03 0.1012E+01
  | Will include ionic basis functions of  2.0-fold positive S                    ion.
  Species S : On-site basis accuracy parameter (for Gram-Schmidt orthonormalisation) not specified.
  Using default value basis_acc =  0.1000000E-03.
  Species S                   : Using default innermost maximum threshold i_radial=  2 for radial functions.
  Species S                   : Default cutoff onset for free atom density etc. : 0.35000000E+01 AA.
  Species S                   : Basic radial grid will be enhanced according to radial_multiplier =   1, to contain    44 grid points.
 
  Reading configuration options for species Cl                  .
  | Found nuclear charge :  17.0000
  | Found atomic mass :    35.4530000000000      amu
  | Found l_max for Hartree potential  :   4
  | Found cutoff potl. onset [A], width [A], scale factor :    3.50000    1.50000    1.00000
  | Threshold for basis-dependent cutoff potential is   0.100000E-03
  | Found data for basic radial integration grid :    45 points, outermost radius =    5.000 A
  | Found multiplier for basic radial grid :   1
  | Found angular grid specification: user-specified.
  | Specified grid contains     4 separate shells.
  | Check grid settings after all constraints further below.
  | Found free-atom valence shell :  3 s   2.000
  | Found free-atom valence shell :  3 p   5.000
  | Found free-ion valence shell :  3 s   1.000
  | Found free-ion valence shell :  3 p   4.000
  | Found ionic basis function :  3 d , default cutoff radius.
  | Found hydrogenic basis function :  2 p   1.900
  | Found ionic basis function :  3 s , default cutoff radius.
  Species Cl                  : Missing cutoff potential type.
  Defaulting to exp(1/x)/(1-x)^2 type cutoff potential.
  Species Cl: No 'logarithmic' tag. Using default grid for free atom:
  | Default logarithmic grid data [bohr] : 0.1000E-03 0.1000E+03 0.1012E+01
  | Will include ionic basis functions of  2.0-fold positive Cl                   ion.
  Species Cl: On-site basis accuracy parameter (for Gram-Schmidt orthonormalisation) not specified.
  Using default value basis_acc =  0.1000000E-03.
  Species Cl                  : Using default innermost maximum threshold i_radial=  2 for radial functions.
  Species Cl                  : Default cutoff onset for free atom density etc. : 0.35000000E+01 AA.
  Species Cl                  : Basic radial grid will be enhanced according to radial_multiplier =   1, to contain    45 grid points.
 
  Finished reading input file 'control.in'. Consistency checks are next.
 
  MPI_IN_PLACE appears to work with this MPI implementation.
  | Keeping use_mpi_in_place .true. (see manual).
  Target number of points in a grid batch is not set. Defaulting to  100
  Method for grid partitioning is not set. Defaulting to parallel hash+maxmin partitioning.
  Batch size limit is not set. Defaulting to    200
  By default, will store active basis functions for each batch.
  If in need of memory, prune_basis_once .false. can be used to disable this option.
  communication_type for Hartree potential was not specified.
  Defaulting to calc_hartree .
  Defaulting to Pulay charge density mixer.
  Pulay mixer: Number of relevant iterations not set.
  Defaulting to    8 iterations.
  Pulay mixer: Number of initial linear mixing iterations not set.
  Defaulting to    0 iterations.
  Work space size for distributed Hartree potential not set.
  Defaulting to   0.200000E+03 MB.
  Mixing parameter for charge density mixing has not been set.
  Using default: charge_mix_param =     0.0500.
  The mixing parameter will be adjusted in iteration number     2 of the first full s.c.f. cycle only.
  Algorithm-dependent basis array size parameters:
  | n_max_pulay                         :        8
  Maximum number of self-consistency iterations not provided.
  Presetting  1000 iterations.
  Presetting      1001 iterations before the initial mixing cycle
  is restarted anyway using the sc_init_iter criterion / keyword.
  Presetting a factor      1.000 between actual scf density residual
  and density convergence criterion sc_accuracy_rho below which sc_init_iter
  takes no effect.
  Geometry relaxation not requested: no relaxation will be performed.
  Handling of forces: Unphysical translation and rotation will be removed from forces.
  No accuracy limit for integral partition fn. given. Defaulting to  0.1000E-14.
  No threshold value for u(r) in integrations given. Defaulting to  0.1000E-05.
  No occupation type (smearing scheme) given. Defaulting to Gaussian broadening, width =  0.1000E-01 eV.
  The width will be adjusted in iteration number     2 of the first full s.c.f. cycle only.
  S.C.F. convergence parameters will be adjusted in iteration number     2 of the first full s.c.f. cycle only.
  No accuracy for occupation numbers given. Defaulting to  0.1000E-12.
  No threshold value for occupation numbers given. Defaulting to  0.0000E+00.
  No accuracy for fermi level given. Defaulting to  0.1000E-19.
  Maximum # of iterations to find E_F not set. Defaulting to  200.
  Preferred method for the eigenvalue solver ('KS_method') not specified in 'control.in'.
  Defaulting to serial version, 'lapack_fast', since more k-points than CPUs available.
  Will not use alltoall communication since running on < 1024 CPUs.
  Threshold for basis singularities not set.
  Default threshold for basis singularities:  0.1000E-04
  partition_type (choice of integration weights) for integrals was not specified.
  | Using a version of the partition function of Stratmann and coworkers ('stratmann_smoother').
  | At each grid point, the set of atoms used to build the partition table is smoothly restricted to
  | only those atoms whose free-atom density would be non-zero at that grid point.
  Partitioning for Hartree potential was not defined. Using partition_type for integrals.
  | Adjusted default value of keyword multip_moments_threshold to:       0.10000000E-11
  | This value may affect high angular momentum components of the Hartree potential in periodic systems.
  Spin handling was not defined in control.in. Defaulting to unpolarized case.
  Angular momentum expansion for Kerker preconditioner not set explicitly.
  | Using default value of   0
  No explicit requirement for turning off preconditioner.
  | By default, it will be turned off when the charge convergence reaches
  | sc_accuracy_rho  =   0.100000E-05
  | sc_accuracy_eev  =   0.100000E-02
  | sc_accuracy_etot =   0.100000E-05
  No special mixing parameter while Kerker preconditioner is on.
  Using default: charge_mix_param =     0.0500.
  No q(lm)/r^(l+1) cutoff set for long-range Hartree potential.
  | Using default value of  0.100000E-09 .
  | Verify using the multipole_threshold keyword.
  Defaulting to new monopole extrapolation.
  Density update method: automatic selection selected.
  Using density matrix based charge density update.
  Using density matrix based charge density update.
  Using packed matrix style: index .
  Defaulting to use time-reversal symmetry for k-point grid.
------------------------------------------------------------


------------------------------------------------------------
          Reading geometry description geometry.in.
------------------------------------------------------------
 * Warning! You did not set the 'relativistic' flag in input file 'control.in'.
 * Since you are not attempting to treat any elements beyond Ca(Z=20), FHI-aims
 * will default to 'relativistic none'.
 * You must ensure that this is really what you want!!
 * For example, DO NOT compute total-energy differences between results from
 * different settings of the 'relativistic' flag.
  Input structure read successfully.
  The structure contains        8 atoms,  and a total of         48.000 electrons.

  Input geometry:
  | Unit cell:
  |        3.64283802        0.00000000        0.00000000
  |       -1.82141901        3.15479027        0.00000000
  |        0.00000000        0.00000000        6.51081748
  | Atomic structure:
  |       Atom                x [A]            y [A]            z [A]
  |    1: Species Li            0.00000000        0.00000000        4.88311311
  |    2: Species Li            0.00000000        0.00000000        1.62770437
  |    3: Species Li            1.82141903        1.05159674        0.54768346
  |    4: Species Li           -0.00000002        2.10319352        3.80309220
  |    5: Species Li           -0.00000002        2.10319352        5.96313402
  |    6: Species Li            1.82141903        1.05159674        2.70772528
  |    7: Species P             1.82141903        1.05159674        4.88311311
  |    8: Species P            -0.00000002        2.10319352        1.62770437

  Lattice parameters for 3D lattice (in Angstroms) :     3.642838    3.642838    6.510817
  Angle(s) between unit vectors (in degrees)      :    90.000000   90.000000  120.000000

  |

  | The smallest distance between any two atoms is         2.10319349 AA.
  |
  | The first atom of this pair is atom number                      1 .
  | The second atom of this pair is atom number                     7 .
  | Wigner-Seitz cell of the first atom image           0     0     0 .
  | (The Wigner-Seitz cell of the second atom is 0 0 0  by definition.)

  Symmetry information by spglib:
  | Precision set to  0.1E-04
  | Number of Operations  : 24
  | Space group           : 194
  | International         : P6_3/mmc
  | Schoenflies           : D6h^4

  Quantities derived from the lattice vectors:
  | Reciprocal lattice vector 1:  1.724805  0.995817  0.000000
  | Reciprocal lattice vector 2:  0.000000  1.991633  0.000000
  | Reciprocal lattice vector 3:  0.000000  0.000000  0.965038
  | Unit cell volume                               :   0.748249E+02  A^3

  Range separation radius for Ewald summation (hartree_convergence_parameter):      2.89512334 bohr.

  Fractional coordinates:
                         L1                L2                L3
       atom_frac         0.00000000        0.00000000        0.75000000  Li
       atom_frac         0.00000000        0.00000000        0.25000000  Li
       atom_frac         0.66666667        0.33333333        0.08411900  Li
       atom_frac         0.33333333        0.66666667        0.58411900  Li
       atom_frac         0.33333333        0.66666667        0.91588100  Li
       atom_frac         0.66666667        0.33333333        0.41588100  Li
       atom_frac         0.66666667        0.33333333        0.75000000  P
       atom_frac         0.33333333        0.66666667        0.25000000  P

  Number of empty states per atom not set in control.in - providing a guess from actual geometry.
  | Total number of empty states used during s.c.f. cycle:       15
  If you use a very high smearing, use empty_states (per atom!) in control.in to increase this value.

  Structure-dependent array size parameters: 
  | Maximum number of distinct radial functions  :       29
  | Maximum number of basis functions            :      102
  | Number of Kohn-Sham states (occupied + empty):       39
------------------------------------------------------------

------------------------------------------------------------
          Preparing all fixed parts of the calculation.
------------------------------------------------------------
  Determining machine precision:
    2.225073858507201E-308
  Setting up grids for atomic and cluster calculations.

  Creating wave function, potential, and density for free atoms.

  Species: Li

  List of occupied orbitals and eigenvalues:
    n    l              occ      energy [Ha]    energy [eV]
    1    0           2.0000        -1.876896       -51.0729
    2    0           1.0000        -0.084105        -2.2886


  Species: P

  List of occupied orbitals and eigenvalues:
    n    l              occ      energy [Ha]    energy [eV]
    1    0           2.0000       -76.351489     -2077.6297
    2    0           2.0000        -6.353717      -172.8934
    3    0           2.0000        -0.506059       -13.7706
    2    1           6.0000        -4.569386      -124.3393
    3    1           3.0000        -0.198107        -5.3908


  Species: S

  List of occupied orbitals and eigenvalues:
    n    l              occ      energy [Ha]    energy [eV]
    1    0           2.0000       -88.105825     -2397.4815
    2    0           2.0000        -7.730144      -210.3479
    3    0           2.0000        -0.627748       -17.0819
    2    1           6.0000        -5.747971      -156.4103
    3    1           4.0000        -0.255786        -6.9603


  Species: Cl

  List of occupied orbitals and eigenvalues:
    n    l              occ      energy [Ha]    energy [eV]
    1    0           2.0000      -100.709620     -2740.4482
    2    0           2.0000        -9.221874      -250.9399
    3    0           2.0000        -0.753366       -20.5001
    2    1           6.0000        -7.038743      -191.5339
    3    1           5.0000        -0.315359        -8.5813

  Creating fixed part of basis set: Ionic, confined, hydrogenic.
 
  Li                   hydrogenic:
 
  List of hydrogenic basis orbitals: 
    n    l      effective z      eigenvalue [eV]  inner max. [A]     outer max. [A]     outer radius [A]   
    2    1         1.600000        -8.6069           1.303334           1.303334           4.591005
    2    0         2.000000       -13.5631           0.203259           1.385485           4.591005
    3    2         2.600000        -9.9241           1.769240           1.769240           4.591005
 
 
  P                    ion:

  List of free ionic orbitals and eigenvalues:
    n    l      energy [Ha]    energy [eV]
    1    0       -77.297133     -2103.3620
    2    0        -7.273914      -197.9333
    3    0        -1.267536       -34.4914
    2    1        -5.491316      -149.4263
    3    1        -0.913470       -24.8568


  List of ionic basis orbitals and eigenvalues:
    n    l      energy [Ha]    energy [eV]    outer radius [A]
    3    2        -0.457308       -12.4440       4.554583
    3    1        -0.913443       -24.8560       4.337222
    3    0        -1.267519       -34.4910       3.885335

 
  S                    ion:

  List of free ionic orbitals and eigenvalues:
    n    l      energy [Ha]    energy [eV]
    1    0       -89.127201     -2425.2745
    2    0        -8.724378      -237.4024
    3    0        -1.464668       -39.8556
    2    1        -6.744348      -183.5230
    3    1        -1.048520       -28.5317


  List of ionic basis orbitals and eigenvalues:
    n    l      energy [Ha]    energy [eV]    outer radius [A]
    3    2        -0.496135       -13.5005       4.539062
    3    0        -1.464653       -39.8552       3.642502

 
  S                    hydrogenic:
 
  List of hydrogenic basis orbitals: 
    n    l      effective z      eigenvalue [eV]  inner max. [A]     outer max. [A]     outer radius [A]   
    2    1         1.800000       -10.9749           1.168531           1.168531           4.594893
 
 
  Cl                   ion:

  List of free ionic orbitals and eigenvalues:
    n    l      energy [Ha]    energy [eV]
    1    0      -101.807232     -2770.3157
    2    0       -10.290876      -280.0290
    3    0        -1.664625       -45.2967
    2    1        -8.110237      -220.6908
    3    1        -1.183915       -32.2160


  List of ionic basis orbitals and eigenvalues:
    n    l      energy [Ha]    energy [eV]    outer radius [A]
    3    2        -0.529186       -14.3999       4.541334
    3    0        -1.664610       -45.2963       3.428237

 
  Cl                   hydrogenic:
 
  List of hydrogenic basis orbitals: 
    n    l      effective z      eigenvalue [eV]  inner max. [A]     outer max. [A]     outer radius [A]   
    2    1         1.900000       -12.2492           1.113321           1.113321           4.597192
 

  Adding cutoff potential to free-atom effective potential.
  Creating atomic-like basis functions for current effective potential.

  Species Li                  :

  List of atomic basis orbitals and eigenvalues:
    n    l      energy [Ha]    energy [eV]    outer radius [A]
    1    0        -1.876896       -51.0729       4.062706
    2    0        -0.084105        -2.2886       4.591005


  Species P                   :

  List of atomic basis orbitals and eigenvalues:
    n    l      energy [Ha]    energy [eV]    outer radius [A]
    1    0       -76.351489     -2077.6297       0.736837
    2    0        -6.353717      -172.8934       2.532824
    3    0        -0.506059       -13.7706       4.499242
    2    1        -4.569386      -124.3393       2.862183
    3    1        -0.198107        -5.3908       4.554583


  Species S                   :

  List of atomic basis orbitals and eigenvalues:
    n    l      energy [Ha]    energy [eV]    outer radius [A]
    1    0       -88.105825     -2397.4815       0.682391
    2    0        -7.730144      -210.3479       2.317169
    3    0        -0.627748       -17.0819       4.483910
    2    1        -5.747971      -156.4103       2.555240
    3    1        -0.255786        -6.9603       4.539062


  Species Cl                  :

  List of atomic basis orbitals and eigenvalues:
    n    l      energy [Ha]    energy [eV]    outer radius [A]
    1    0      -100.709620     -2740.4482       0.642251
    2    0        -9.221874      -250.9399       2.128190
    3    0        -0.753366       -20.5001       4.431645
    2    1        -7.038743      -191.5339       2.346844
    3    1        -0.315359        -8.5813       4.541334

  Assembling full basis from fixed parts.
  | Species Li :   atomic orbital   1 s accepted.
  | Species Li :   atomic orbital   2 s accepted.
  | Species Li :    hydro orbital   2 s accepted.
  | Species Li :    hydro orbital   2 p accepted.
  | Species Li :    hydro orbital   3 d accepted.
  | Species P :   atomic orbital   1 s accepted.
  | Species P :   atomic orbital   2 s accepted.
  | Species P :    ionic orbital   3 s accepted.
  | Species P :   atomic orbital   3 s accepted.
  | Species P :   atomic orbital   2 p accepted.
  | Species P :    ionic orbital   3 p accepted.
  | Species P :   atomic orbital   3 p accepted.
  | Species P :    ionic orbital   3 d accepted.
  | Species S :   atomic orbital   1 s accepted.
  | Species S :   atomic orbital   2 s accepted.
  | Species S :    ionic orbital   3 s accepted.
  | Species S :   atomic orbital   3 s accepted.
  | Species S :   atomic orbital   2 p accepted.
  | Species S :   atomic orbital   3 p accepted.
  | Species S :    hydro orbital   2 p accepted.
  | Species S :    ionic orbital   3 d accepted.
  | Species Cl :   atomic orbital   1 s accepted.
  | Species Cl :   atomic orbital   2 s accepted.
  | Species Cl :    ionic orbital   3 s accepted.
  | Species Cl :   atomic orbital   3 s accepted.
  | Species Cl :   atomic orbital   2 p accepted.
  | Species Cl :   atomic orbital   3 p accepted.
  | Species Cl :    hydro orbital   2 p accepted.
  | Species Cl :    ionic orbital   3 d accepted.
 
  Basis size parameters after reduction:
  | Total number of radial functions:       29
  | Total number of basis functions :      102
 
  Per-task memory consumption for arrays in subroutine allocate_ext:
  |           7.588368MB.
  Testing on-site integration grid accuracy.
  |  Species  Function  <phi|h_atom|phi> (log., in eV)  <phi|h_atom|phi> (rad., in eV)
           1        1                -51.0729407432                -51.0729328795
           1        2                 -2.3261068990                 -2.3227046518
           1        3                 17.1966930198                 17.2358027191 ***
           1        4                  0.3867256281                  0.3982841734
           1        5                  6.2743141416                  6.2817896417
           2        6              -2077.6297159538              -2077.6288551184
           2        7               -172.8934457906               -172.8934403880
           2        8                -13.4653967551                -13.4655200798
           2        9                  6.4162845277                  6.4013396720
           2       10               -124.3393201040               -124.3393200061
           2       11                 -4.7560266034                 -4.7560495157
           2       12                  6.5873401476                  6.4958904717 ***
           2       13                  5.2911719464                  5.2826493609
           3       14              -2397.4814915323              -2397.4804563634
           3       15               -210.3479335736               -210.3479265952
           3       16                -16.8079362322                -16.8079092816
           3       17                  7.5772439785                  7.5675998324
           3       18               -156.4102581151               -156.4102580951
           3       19                 -6.9617737483                 -6.9640288036
           3       20                  7.5696988470                  7.5151244831 ***
           3       21                  6.0973034823                  6.0928113248
           4       22              -2740.4481953768              -2740.4469735573
           4       23               -250.9399497423               -250.9399403187
           4       24                -20.2462734235                -20.2462512680
           4       25                  8.9460051782                  8.9510436705
           4       26               -191.5339459398               -191.5339455009
           4       27                 -8.5819075957                 -8.5827488985
           4       28                  8.1339828089                  8.0979459360 ***
           4       29                  7.0302175114                  7.0277664253
 * Note: Onsite integrals marked "***" above are less accurate than
 * onsite_accuracy_threshold =    0.03000 eV. Usually, this is harmless.
 * When in doubt, tighten the "radial" and/or "radial_multiplier" flags to check.

  Preparing densities etc. for the partition functions (integrals / Hartree potential).

  Preparations completed.
  max(cpu_time)          :      0.413 s.
  Wall clock time (cpu1) :      0.416 s.
------------------------------------------------------------

------------------------------------------------------------
          Begin self-consistency loop: Initialization.

          Date     :  20220721, Time     :  124559.389
------------------------------------------------------------

  Initializing index lists of integration centers etc. from given atomic structure:
  Mapping all atomic coordinates to central unit cell.

  Initializing the k-points
          Using symmetry for reducing the k-points
  | k-points reduced from:      216 to      112
  | Number of k-points                             :       112
  The eigenvectors in the calculations are COMPLEX.
  | K-points in task   0:         5
  | K-points in task   1:         6
  | K-points in task   2:         6
  | K-points in task   3:         6
  | K-points in task   4:         6
  | K-points in task   5:         6
  | K-points in task   6:         6
  | K-points in task   7:         6
  | K-points in task   8:         6
  | K-points in task   9:         6
  | K-points in task  10:         6
  | K-points in task  11:         6
  | K-points in task  12:         6
  | K-points in task  13:         5
  | K-points in task  14:         5
  | K-points in task  15:         5
  | K-points in task  16:         5
  | K-points in task  17:         5
  | K-points in task  18:         5
  | K-points in task  19:         5
  | Number of basis functions in the Hamiltonian integrals :      2696
  | Number of basis functions in a single unit cell        :       102
  | Number of centers in hartree potential         :      1334
  | Number of centers in hartree multipole         :       948
  | Number of centers in electron density summation:       692
  | Number of centers in basis integrals           :       774
  | Number of centers in integrals                 :       266
  | Number of centers in hamiltonian               :       692
  | Consuming        252 KiB for k_phase.
  | Number of super-cells (origin) [n_cells]                     :         847
  | Number of super-cells (after PM_index) [n_cells]             :         144
  | Number of super-cells in hamiltonian [n_cells_in_hamiltonian]:         144
  | Size of matrix packed + index [n_hamiltonian_matrix_size] :      223339
  Partitioning the integration grid into batches with parallel hashing+maxmin method.
  | Number of batches:      704
  | Maximal batch size:     119
  | Minimal batch size:      52
  | Average batch size:      68.307
  | Standard deviation of batch sizes:      14.435

  Integration load balanced across    20 MPI tasks.
  Work distribution over tasks is as follows:
  Task     0 has       2417 integration points.
  Task     1 has       2437 integration points.
  Task     2 has       2391 integration points.
  Task     3 has       2429 integration points.
  Task     4 has       2425 integration points.
  Task     5 has       2433 integration points.
  Task     6 has       2352 integration points.
  Task     7 has       2354 integration points.
  Task     8 has       2361 integration points.
  Task     9 has       2355 integration points.
  Task    10 has       2428 integration points.
  Task    11 has       2391 integration points.
  Task    12 has       2376 integration points.
  Task    13 has       2401 integration points.
  Task    14 has       2430 integration points.
  Task    15 has       2428 integration points.
  Task    16 has       2415 integration points.
  Task    17 has       2433 integration points.
  Task    18 has       2401 integration points.
  Task    19 has       2431 integration points.
  Initializing partition tables, free-atom densities, potentials, etc. across the integration grid (initialize_grid_storage).
  | initialize_grid_storage: Actual outermost partition radius vs. multipole_radius_free
  | (-- VB: in principle, multipole_radius_free should be larger, hence this output)
  | Species        1: Confinement radius =              4.999999999999999 AA, multipole_radius_free =              5.001180127821857 AA.
  | Species        1: outer_partition_radius set to              5.001180127821857 AA .
  | Species        2: Confinement radius =              4.999999999999999 AA, multipole_radius_free =              5.022530438398565 AA.
  | Species        2: outer_partition_radius set to              5.022530438398565 AA .
  | Species        3: Confinement radius =              4.999999999999999 AA, multipole_radius_free =              5.005414751018925 AA.
  | Species        3: outer_partition_radius set to              5.005414751018925 AA .
  | Species        4: Confinement radius =              4.999999999999999 AA, multipole_radius_free =              5.007919576009533 AA.
  | Species        4: outer_partition_radius set to              5.007919576009533 AA .
  | Original list of interatomic distances with         774 x        774 entries is created.
  | Net number of integration points:    48088
  | of which are non-zero points    :    38730
  | Numerical average free-atom electrostatic potential    :    -16.58982368 eV
  Renormalizing the initial density to the exact electron count on the 3D integration grid.
  | Initial density: Formal number of electrons (from input files) :      48.0000000000
  | Integrated number of electrons on 3D grid     :      48.0007428700
  | Charge integration error                      :       0.0007428700
  | Normalization factor for density and gradient :       0.9999845238
  Obtaining max. number of non-zero basis functions in each batch (get_n_compute_maxes).
  | Maximal number of non-zero basis functions:      733 in task     0
  | Maximal number of non-zero basis functions:      731 in task     1
  | Maximal number of non-zero basis functions:      723 in task     2
  | Maximal number of non-zero basis functions:      731 in task     3
  | Maximal number of non-zero basis functions:      719 in task     4
  | Maximal number of non-zero basis functions:      743 in task     5
  | Maximal number of non-zero basis functions:      719 in task     6
  | Maximal number of non-zero basis functions:      702 in task     7
  | Maximal number of non-zero basis functions:      737 in task     8
  | Maximal number of non-zero basis functions:      739 in task     9
  | Maximal number of non-zero basis functions:      724 in task    10
  | Maximal number of non-zero basis functions:      726 in task    11
  | Maximal number of non-zero basis functions:      724 in task    12
  | Maximal number of non-zero basis functions:      708 in task    13
  | Maximal number of non-zero basis functions:      714 in task    14
  | Maximal number of non-zero basis functions:      723 in task    15
  | Maximal number of non-zero basis functions:      720 in task    16
  | Maximal number of non-zero basis functions:      740 in task    17
  | Maximal number of non-zero basis functions:      723 in task    18
  | Maximal number of non-zero basis functions:      738 in task    19
  Allocating        0.318 MB for KS_eigenvector_complex
  Integrating Hamiltonian matrix: batch-based integration.
  Time summed over all CPUs for integration: real work        4.800 s, elapsed        4.928 s
  Integrating overlap matrix.
  Time summed over all CPUs for integration: real work        3.458 s, elapsed        3.594 s
  Decreasing sparse matrix size:
   Tolerance:  9.999999824516700E-014
   Hamiltonian matrix
  | Array has   180982 nonzero elements out of   223339 elements
  | Sparsity factor is 0.190
   Overlap matrix
  | Array has   170046 nonzero elements out of   223339 elements
  | Sparsity factor is 0.239
  New size of hamiltonian matrix:      181197

  Updating Kohn-Sham eigenvalues and eigenvectors using ELSI and the ELPA eigensolver.
  Overlap matrix is nonsingular
  | Lowest eigenvalue of overlap  :  0.33E-03
  | Highest eigenvalue of overlap :  0.16E+02
  Finished singularity check of overlap matrix
  | Time :     0.002 s
  Finished Cholesky decomposition
  | Time :     0.000 s
  Finished transformation to standard eigenproblem
  | Time :     0.001 s
  Starting LAPACK eigensolver
  Finished solving standard eigenproblem
  | Time :     0.002 s
  Finished back-transformation of eigenvectors
  | Time :     0.000 s

  Obtaining occupation numbers and chemical potential using ELSI.
  | Chemical potential (Fermi level):    -9.89519209eV
  Writing Kohn-Sham eigenvalues.
  K-point:       1 at    0.000000    0.000000    0.000000 (in units of recip. lattice)

  State    Occupation    Eigenvalue [Ha]    Eigenvalue [eV]
      1       2.00000         -76.454692        -2080.43803
      2       2.00000         -76.454692        -2080.43803
      3       2.00000          -6.466144         -175.95274
      4       2.00000          -6.466144         -175.95274
      5       2.00000          -4.681295         -127.38453
      6       2.00000          -4.681295         -127.38452
      7       2.00000          -4.681295         -127.38451
      8       2.00000          -4.681295         -127.38451
      9       2.00000          -4.680494         -127.36274
     10       2.00000          -4.680494         -127.36271
     11       2.00000          -1.973581          -53.70388
     12       2.00000          -1.970201          -53.61190
     13       2.00000          -1.966221          -53.50360
     14       2.00000          -1.964520          -53.45730
     15       2.00000          -1.962469          -53.40150
     16       2.00000          -1.961012          -53.36184
     17       2.00000          -0.751338          -20.44494
     18       2.00000          -0.733599          -19.96223
     19       2.00000          -0.517529          -14.08268
     20       2.00000          -0.391476          -10.65261
     21       2.00000          -0.388531          -10.57247
     22       2.00000          -0.388527          -10.57235
     23       2.00000          -0.365320           -9.94087
     24       2.00000          -0.365315           -9.94073
     25       0.00000          -0.223510           -6.08201
     26       0.00000          -0.206254           -5.61247
     27       0.00000          -0.206251           -5.61236
     28       0.00000          -0.189078           -5.14506
     29       0.00000          -0.189050           -5.14432
     30       0.00000          -0.127917           -3.48080
     31       0.00000          -0.108642           -2.95629
     32       0.00000          -0.108617           -2.95563
     33       0.00000          -0.091104           -2.47906
     34       0.00000          -0.048425           -1.31770
     35       0.00000           0.001309            0.03563
     36       0.00000           0.001324            0.03603
     37       0.00000           0.128358            3.49281
     38       0.00000           0.161875            4.40483
     39       0.00000           0.161904            4.40564

  What follows are estimated values for band gap, HOMO, LUMO, etc.
  | They are estimated on a discrete k-point grid and not necessarily exact.
  | For converged numbers, create a DOS and/or band structure plot on a denser k-grid.

  Highest occupied state (VBM) at     -9.94073391 eV (relative to internal zero)
  | Occupation number:      2.00000000
  | K-point:       1 at    0.000000    0.000000    0.000000 (in units of recip. lattice)

  Lowest unoccupied state (CBM) at    -9.39256361 eV (relative to internal zero)
  | Occupation number:      0.00000000
  | K-point:      57 at    0.333333    0.333333    0.000000 (in units of recip. lattice)

  ESTIMATED overall HOMO-LUMO gap:      0.54817030 eV between HOMO at k-point 1 and LUMO at k-point 57
  | This appears to be an indirect band gap.
  | Smallest direct gap :      2.28288787 eV for k_point 57 at    0.333333    0.333333    0.000000 (in units of recip. lattice)
  The gap value is above 0.2 eV. Unless you are using a very sparse k-point grid,
  this system is most likely an insulator or a semiconductor.
  Calculating total energy contributions from superposition of free atom densities.

  Total energy components:
  | Sum of eigenvalues            :        -419.75096400 Ha      -11422.00487562 eV
  | XC energy correction          :         -58.13487708 Ha       -1581.93049316 eV
  | XC potential correction       :          75.00250399 Ha        2040.92197458 eV
  | Free-atom electrostatic energy:        -324.81787102 Ha       -8838.74398069 eV
  | Hartree energy correction     :           0.00000000 Ha           0.00000000 eV
  | Entropy correction            :          -0.00000000 Ha          -0.00000000 eV
  | ---------------------------
  | Total energy                  :        -727.70120811 Ha      -19801.75737488 eV
  | Total energy, T -> 0          :        -727.70120811 Ha      -19801.75737488 eV  <-- do not rely on this value for anything but (periodic) metals
  | Electronic free energy        :        -727.70120811 Ha      -19801.75737488 eV

  Derived energy quantities:
  | Kinetic energy                :         728.48661198 Ha       19823.12930180 eV
  | Electrostatic energy          :       -1398.05294301 Ha      -38042.95618352 eV
  | Energy correction for multipole
  | error in Hartree potential    :           0.00000000 Ha           0.00000000 eV
  | Sum of eigenvalues per atom                           :       -1427.75060945 eV
  | Total energy (T->0) per atom                          :       -2475.21967186 eV  <-- do not rely on this value for anything but (periodic) metals
  | Electronic free energy per atom                       :       -2475.21967186 eV
  Initialize hartree_potential_storage
  Max. number of atoms included in rho_multipole:            8

  End scf initialization - timings             :  max(cpu_time)    wall_clock(cpu1)
  | Time for scf. initialization               :        0.854 s           0.854 s
  | Boundary condition initialization          :        0.077 s           0.077 s
  | Integration                                :        0.440 s           0.441 s
  | Solution of K.-S. eqns.                    :        0.039 s           0.039 s
  | Grid partitioning                          :        0.037 s           0.037 s
  | Preloading free-atom quantities on grid    :        0.009 s           0.009 s
  | Free-atom superposition energy             :        0.023 s           0.023 s
  | Total energy evaluation                    :        0.000 s           0.000 s

  Partial memory accounting:
  | Current value for overall tracked memory usage on task 0  :           3.943 MB
  | Peak value for overall tracked memory usage on task 0     :          11.195 MB after allocating wave
  | Largest tracked array allocation on task 0 so far         :           4.298 MB  when allocating hamiltonian_shell
  Note:  These values currently only include a subset of arrays which are explicitly tracked.
  The "true" memory usage will be greater.
------------------------------------------------------------

------------------------------------------------------------
          Begin self-consistency iteration #    1

  Date     :  20220721, Time     :  124600.243
------------------------------------------------------------
  Evaluating new KS density using the density matrix
  Evaluating density matrix
  Time summed over all CPUs for getting density from density matrix: real work        8.315 s, elapsed        8.534 s
  Integration grid: deviation in total charge (<rho> - N_e) =  -1.037392E-12
  Pulay mixing of updated and previous charge densities.

  Evaluating partitioned Hartree potential by multipole expansion.
  | Analytical far-field extrapolation by fixed multipoles:
  | Hartree multipole sum: apparent total charge =   0.101316E-02
  Summing up the Hartree potential.
  | Estimated reciprocal-space cutoff momentum G_max:         3.26990219 bohr^-1 .
  | Reciprocal lattice points for long-range Hartree potential:     312
  Time summed over all CPUs for potential: real work        2.817 s, elapsed        2.896 s
  | RMS charge density error from multipole expansion :   0.649555E-03
  | Average real-space part of the electrostatic potential :     -0.00268539 eV

  Integrating Hamiltonian matrix: batch-based integration.
  Time summed over all CPUs for integration: real work        4.630 s, elapsed        4.756 s

  Updating Kohn-Sham eigenvalues and eigenvectors using ELSI and the ELPA eigensolver.
  Finished Cholesky decomposition
  | Time :     0.000 s
  Finished transformation to standard eigenproblem
  | Time :     0.000 s
  Starting LAPACK eigensolver
  Finished solving standard eigenproblem
  | Time :     0.002 s
  Finished back-transformation of eigenvectors
  | Time :     0.000 s

  Obtaining occupation numbers and chemical potential using ELSI.
  | Chemical potential (Fermi level):    -9.83714872eV
  Writing Kohn-Sham eigenvalues.
  K-point:       1 at    0.000000    0.000000    0.000000 (in units of recip. lattice)

  State    Occupation    Eigenvalue [Ha]    Eigenvalue [eV]
      1       2.00000         -76.447507        -2080.24250
      2       2.00000         -76.447507        -2080.24250
      3       2.00000          -6.460847         -175.80860
      4       2.00000          -6.460847         -175.80860
      5       2.00000          -4.675799         -127.23497
      6       2.00000          -4.675799         -127.23496
      7       2.00000          -4.675799         -127.23495
      8       2.00000          -4.675798         -127.23495
      9       2.00000          -4.675094         -127.21578
     10       2.00000          -4.675093         -127.21576
     11       2.00000          -1.974858          -53.73861
     12       2.00000          -1.971383          -53.64405
     13       2.00000          -1.967646          -53.54237
     14       2.00000          -1.965736          -53.49039
     15       2.00000          -1.963791          -53.43746
     16       2.00000          -1.962446          -53.40087
     17       2.00000          -0.749437          -20.39322
     18       2.00000          -0.731383          -19.90194
     19       2.00000          -0.517089          -14.07070
     20       2.00000          -0.389963          -10.61144
     21       2.00000          -0.386571          -10.51912
     22       2.00000          -0.386566          -10.51900
     23       2.00000          -0.363188           -9.88286
     24       2.00000          -0.363184           -9.88274
     25       0.00000          -0.223305           -6.07645
     26       0.00000          -0.205478           -5.59135
     27       0.00000          -0.205474           -5.59124
     28       0.00000          -0.188239           -5.12225
     29       0.00000          -0.188212           -5.12152
     30       0.00000          -0.127295           -3.46387
     31       0.00000          -0.108437           -2.95071
     32       0.00000          -0.108411           -2.95001
     33       0.00000          -0.089824           -2.44425
     34       0.00000          -0.048315           -1.31472
     35       0.00000           0.001152            0.03136
     36       0.00000           0.001165            0.03170
     37       0.00000           0.128026            3.48375
     38       0.00000           0.162742            4.42843
     39       0.00000           0.162771            4.42923

  What follows are estimated values for band gap, HOMO, LUMO, etc.
  | They are estimated on a discrete k-point grid and not necessarily exact.
  | For converged numbers, create a DOS and/or band structure plot on a denser k-grid.

  Highest occupied state (VBM) at     -9.88274151 eV (relative to internal zero)
  | Occupation number:      2.00000000
  | K-point:       1 at    0.000000    0.000000    0.000000 (in units of recip. lattice)

  Lowest unoccupied state (CBM) at    -9.40989661 eV (relative to internal zero)
  | Occupation number:      0.00000000
  | K-point:      57 at    0.333333    0.333333    0.000000 (in units of recip. lattice)

  ESTIMATED overall HOMO-LUMO gap:      0.47284490 eV between HOMO at k-point 1 and LUMO at k-point 57
  | This appears to be an indirect band gap.
  | Smallest direct gap :      2.21683526 eV for k_point 57 at    0.333333    0.333333    0.000000 (in units of recip. lattice)
  The gap value is above 0.2 eV. Unless you are using a very sparse k-point grid,
  this system is most likely an insulator or a semiconductor.

  Total energy components:
  | Sum of eigenvalues            :        -419.62577796 Ha      -11418.59839019 eV
  | XC energy correction          :         -58.14242592 Ha       -1582.13590750 eV
  | XC potential correction       :          75.01243121 Ha        2041.19210806 eV
  | Free-atom electrostatic energy:        -324.81787102 Ha       -8838.74398069 eV
  | Hartree energy correction     :          -0.12333003 Ha          -3.35598093 eV
  | Entropy correction            :          -0.00000000 Ha          -0.00000000 eV
  | ---------------------------
  | Total energy                  :        -727.69697372 Ha      -19801.64215125 eV
  | Total energy, T -> 0          :        -727.69697372 Ha      -19801.64215125 eV  <-- do not rely on this value for anything but (periodic) metals
  | Electronic free energy        :        -727.69697372 Ha      -19801.64215125 eV

  Derived energy quantities:
  | Kinetic energy                :         728.54458470 Ha       19824.70681953 eV
  | Electrostatic energy          :       -1398.09913249 Ha      -38044.21306327 eV
  | Energy correction for multipole
  | error in Hartree potential    :           0.00017634 Ha           0.00479858 eV
  | Sum of eigenvalues per atom                           :       -1427.32479877 eV
  | Total energy (T->0) per atom                          :       -2475.20526891 eV  <-- do not rely on this value for anything but (periodic) metals
  | Electronic free energy per atom                       :       -2475.20526891 eV

  Self-consistency convergence accuracy:
  | Change of charge density      :  0.1637E+00
  | Change of sum of eigenvalues  :  0.3406E+01 eV
  | Change of total energy        :  0.1152E+00 eV

  End self-consistency iteration #     1       :  max(cpu_time)    wall_clock(cpu1)
  | Time for this iteration                    :        0.982 s           0.992 s
  | Charge density update                      :        0.437 s           0.437 s
  | Density mixing & preconditioning           :        0.122 s           0.122 s
  | Hartree multipole update                   :        0.001 s           0.001 s
  | Hartree multipole summation                :        0.149 s           0.150 s
  | Integration                                :        0.243 s           0.243 s
  | Solution of K.-S. eqns.                    :        0.028 s           0.028 s
  | Total energy evaluation                    :        0.000 s           0.000 s

  Partial memory accounting:
  | Current value for overall tracked memory usage on task 0  :           3.943 MB
  | Peak value for overall tracked memory usage on task 0     :          12.428 MB after allocating gradient_basis_wave
  | Largest tracked array allocation on task 0 so far         :           4.298 MB  when allocating hamiltonian_shell
  Note:  These values currently only include a subset of arrays which are explicitly tracked.
  The "true" memory usage will be greater.
------------------------------------------------------------

------------------------------------------------------------
          Begin self-consistency iteration #    2

  Date     :  20220721, Time     :  124601.236
------------------------------------------------------------
  Evaluating new KS density using the density matrix
  Evaluating density matrix
  Time summed over all CPUs for getting density from density matrix: real work        8.305 s, elapsed        8.516 s
  Integration grid: deviation in total charge (<rho> - N_e) =  -9.876544E-13
  Pulay mixing of updated and previous charge densities.

  Evaluating partitioned Hartree potential by multipole expansion.
  | Analytical far-field extrapolation by fixed multipoles:
  | Hartree multipole sum: apparent total charge =   0.410167E-02
  Summing up the Hartree potential.
  Time summed over all CPUs for potential: real work        3.139 s, elapsed        3.458 s
  | RMS charge density error from multipole expansion :   0.890314E-02
  | Average real-space part of the electrostatic potential :     -0.02834975 eV

  Integrating Hamiltonian matrix: batch-based integration.
  Time summed over all CPUs for integration: real work        4.647 s, elapsed        4.777 s

  Updating Kohn-Sham eigenvalues and eigenvectors using ELSI and the ELPA eigensolver.
  Finished Cholesky decomposition
  | Time :     0.000 s
  Finished transformation to standard eigenproblem
  | Time :     0.001 s
  Starting LAPACK eigensolver
  Finished solving standard eigenproblem
  | Time :     0.002 s
  Finished back-transformation of eigenvectors
  | Time :     0.000 s

  Obtaining occupation numbers and chemical potential using ELSI.
  | Chemical potential (Fermi level):    -9.18476007eV
  What follows are estimated values for band gap, HOMO, LUMO, etc.
  | They are estimated on a discrete k-point grid and not necessarily exact.
  | For converged numbers, create a DOS and/or band structure plot on a denser k-grid.

  Highest occupied state (VBM) at     -9.20729570 eV (relative to internal zero)
  | Occupation number:      1.99856253
  | K-point:       2 at    0.000000    0.000000    0.166667 (in units of recip. lattice)

  Lowest unoccupied state (CBM) at    -9.16368442 eV (relative to internal zero)
  | Occupation number:      0.00287733
  | K-point:       1 at    0.000000    0.000000    0.000000 (in units of recip. lattice)

  ESTIMATED overall HOMO-LUMO gap:      0.04361128 eV between HOMO at k-point 2 and LUMO at k-point 1
  | This appears to be an indirect band gap.
  | Smallest direct gap :      0.69502502 eV for k_point 1 at    0.000000    0.000000    0.000000 (in units of recip. lattice)
  However, the gap value is rather small. Since we use a finite k-point grid,
  this material is most likely metallic (in the sense that there are states
  at or near the Fermi level). A DOS and/or band structure plot is required
  for an unambiguous distinction.

  Checking to see if s.c.f. parameters should be adjusted.
  Adjusted the Pulay mixing parameter (charge_mix_param) for an expected low-gap system. New value:   0.020000 .
  Adjusted the occupation broadening width for an expected low-gap system. New value:      0.05000000 eV.

  Total energy components:
  | Sum of eigenvalues            :        -418.01465896 Ha      -11374.75761170 eV
  | XC energy correction          :         -58.24447626 Ha       -1584.91283845 eV
  | XC potential correction       :          75.14585479 Ha        2044.82274814 eV
  | Free-atom electrostatic energy:        -324.81787102 Ha       -8838.74398069 eV
  | Hartree energy correction     :          -1.74059042 Ha         -47.36387523 eV
  | Entropy correction            :          -0.00001184 Ha          -0.00032219 eV
  | ---------------------------
  | Total energy                  :        -727.67174187 Ha      -19800.95555793 eV
  | Total energy, T -> 0          :        -727.67175371 Ha      -19800.95588012 eV  <-- do not rely on this value for anything but (periodic) metals
  | Electronic free energy        :        -727.67176556 Ha      -19800.95620232 eV

  Derived energy quantities:
  | Kinetic energy                :         729.39683952 Ha       19847.89785322 eV
  | Electrostatic energy          :       -1398.82410514 Ha      -38063.94057270 eV
  | Energy correction for multipole
  | error in Hartree potential    :           0.00246571 Ha           0.06709538 eV
  | Sum of eigenvalues per atom                           :       -1421.84470146 eV
  | Total energy (T->0) per atom                          :       -2475.11948502 eV  <-- do not rely on this value for anything but (periodic) metals
  | Electronic free energy per atom                       :       -2475.11952529 eV

  Self-consistency convergence accuracy:
  | Change of charge density      :  0.1523E+00
  | Change of sum of eigenvalues  :  0.4384E+02 eV
  | Change of total energy        :  0.6866E+00 eV

  End self-consistency iteration #     2       :  max(cpu_time)    wall_clock(cpu1)
  | Time for this iteration                    :        0.996 s           0.996 s
  | Charge density update                      :        0.436 s           0.436 s
  | Density mixing & preconditioning           :        0.104 s           0.104 s
  | Hartree multipole update                   :        0.001 s           0.001 s
  | Hartree multipole summation                :        0.177 s           0.177 s
  | Integration                                :        0.244 s           0.244 s
  | Solution of K.-S. eqns.                    :        0.033 s           0.033 s
  | Total energy evaluation                    :        0.000 s           0.000 s

  Partial memory accounting:
  | Current value for overall tracked memory usage on task 0  :           3.944 MB
  | Peak value for overall tracked memory usage on task 0     :          12.428 MB after allocating gradient_basis_wave
  | Largest tracked array allocation on task 0 so far         :           4.298 MB  when allocating hamiltonian_shell
  Note:  These values currently only include a subset of arrays which are explicitly tracked.
  The "true" memory usage will be greater.
------------------------------------------------------------

------------------------------------------------------------
          Begin self-consistency iteration #    3

  Date     :  20220721, Time     :  124602.233
------------------------------------------------------------
  Evaluating new KS density using the density matrix
  Evaluating density matrix
  Time summed over all CPUs for getting density from density matrix: real work        8.464 s, elapsed        8.810 s
  Integration grid: deviation in total charge (<rho> - N_e) =  -1.108447E-12
  Pulay mixing of updated and previous charge densities.

  Evaluating partitioned Hartree potential by multipole expansion.
  | Analytical far-field extrapolation by fixed multipoles:
  | Hartree multipole sum: apparent total charge =   0.248158E-03
  Summing up the Hartree potential.
  Time summed over all CPUs for potential: real work        3.096 s, elapsed        3.198 s
  | RMS charge density error from multipole expansion :   0.942348E-02
  | Average real-space part of the electrostatic potential :     -0.06663781 eV

  Integrating Hamiltonian matrix: batch-based integration.
  Time summed over all CPUs for integration: real work        4.645 s, elapsed        4.756 s

  Updating Kohn-Sham eigenvalues and eigenvectors using ELSI and the ELPA eigensolver.
  Finished Cholesky decomposition
  | Time :     0.000 s
  Finished transformation to standard eigenproblem
  | Time :     0.000 s
  Starting LAPACK eigensolver
  Finished solving standard eigenproblem
  | Time :     0.002 s
  Finished back-transformation of eigenvectors
  | Time :     0.000 s

  Obtaining occupation numbers and chemical potential using ELSI.
  | Chemical potential (Fermi level):    -9.31401564eV
  What follows are estimated values for band gap, HOMO, LUMO, etc.
  | They are estimated on a discrete k-point grid and not necessarily exact.
  | For converged numbers, create a DOS and/or band structure plot on a denser k-grid.

  Highest occupied state (VBM) at     -9.34571732 eV (relative to internal zero)
  | Occupation number:      1.63009906
  | K-point:       2 at    0.000000    0.000000    0.166667 (in units of recip. lattice)

  Lowest unoccupied state (CBM) at    -9.30226049 eV (relative to internal zero)
  | Occupation number:      0.73952243
  | K-point:       1 at    0.000000    0.000000    0.000000 (in units of recip. lattice)

  ESTIMATED overall HOMO-LUMO gap:      0.04345683 eV between HOMO at k-point 2 and LUMO at k-point 1
  | This appears to be an indirect band gap.
  | Smallest direct gap :      0.68338410 eV for k_point 1 at    0.000000    0.000000    0.000000 (in units of recip. lattice)
  However, this system has fractional occupation numbers. Since we use a finite k-point grid,
  this material is metallic within the approximate finite broadening function (occupation_type)
  applied to determine the occupation numbers.

  Total energy components:
  | Sum of eigenvalues            :        -418.57072017 Ha      -11389.88880688 eV
  | XC energy correction          :         -58.20243312 Ha       -1583.76878646 eV
  | XC potential correction       :          75.09140078 Ha        2043.34097915 eV
  | Free-atom electrostatic energy:        -324.81787102 Ha       -8838.74398069 eV
  | Hartree energy correction     :          -1.17289148 Ha         -31.91600104 eV
  | Entropy correction            :          -0.00001096 Ha          -0.00029814 eV
  | ---------------------------
  | Total energy                  :        -727.67251501 Ha      -19800.97659591 eV
  | Total energy, T -> 0          :        -727.67252596 Ha      -19800.97689405 eV  <-- do not rely on this value for anything but (periodic) metals
  | Electronic free energy        :        -727.67253692 Ha      -19800.97719218 eV

  Derived energy quantities:
  | Kinetic energy                :         728.85142974 Ha       19833.05649803 eV
  | Electrostatic energy          :       -1398.32151163 Ha      -38050.26430748 eV
  | Energy correction for multipole
  | error in Hartree potential    :           0.00304638 Ha           0.08289635 eV
  | Sum of eigenvalues per atom                           :       -1423.73610086 eV
  | Total energy (T->0) per atom                          :       -2475.12211176 eV  <-- do not rely on this value for anything but (periodic) metals
  | Electronic free energy per atom                       :       -2475.12214902 eV

  Self-consistency convergence accuracy:
  | Change of charge density      :  0.4099E-01
  | Change of sum of eigenvalues  : -0.1513E+02 eV
  | Change of total energy        : -0.2104E-01 eV

[...]
  | XC energy correction          :         -58.21212810 Ha       -1584.03260032 eV
  | XC potential correction       :          75.10332536 Ha        2043.66546347 eV
  | Free-atom electrostatic energy:        -324.81787102 Ha       -8838.74398069 eV
  | Hartree energy correction     :          -1.26954737 Ha         -34.54614166 eV
  | Entropy correction            :          -0.00001093 Ha          -0.00029743 eV
  | ---------------------------
  | Total energy                  :        -727.67146566 Ha      -19800.94804178 eV
  | Total energy, T -> 0          :        -727.67147659 Ha      -19800.94833920 eV  <-- do not rely on this value for anything but (periodic) metals
  | Electronic free energy        :        -727.67148752 Ha      -19800.94863663 eV

  Derived energy quantities:
  | Kinetic energy                :         728.80151520 Ha       19831.69825426 eV
  | Electrostatic energy          :       -1398.26085276 Ha      -38048.61369571 eV
  | Energy correction for multipole
  | error in Hartree potential    :           0.00457724 Ha           0.12455293 eV
  | Sum of eigenvalues per atom                           :       -1423.41134782 eV
  | Total energy (T->0) per atom                          :       -2475.11854240 eV  <-- do not rely on this value for anything but (periodic) metals
  | Electronic free energy per atom                       :       -2475.11857958 eV

  atomic forces [eV/Ang]:
  -----------------------
  atom #    1
   Hellmann-Feynman              :  0.112544E-06 -0.207839E-02 -0.137687E-06
   Ionic forces                  :  0.000000E+00  0.000000E+00  0.000000E+00
   Multipole                     : -0.834341E-09  0.150094E-03  0.295241E-09
   Pulay + GGA                   :  0.196734E-07  0.192607E-02 -0.402332E-06
   ----------------------------------------------------------------
   Total forces(   1)            :  0.131384E-06 -0.222966E-05 -0.539724E-06
  atom #    2
   Hellmann-Feynman              : -0.112544E-06  0.207839E-02  0.128083E-06
   Ionic forces                  :  0.000000E+00  0.000000E+00  0.000000E+00
   Multipole                     :  0.834334E-09 -0.150094E-03 -0.238004E-09
   Pulay + GGA                   : -0.196620E-07 -0.192607E-02  0.430879E-06
   ----------------------------------------------------------------
   Total forces(   2)            : -0.131372E-06  0.222964E-05  0.558724E-06
  atom #    3
   Hellmann-Feynman              : -0.162758E-06 -0.304181E-02  0.403125E-01
   Ionic forces                  :  0.000000E+00  0.000000E+00  0.000000E+00
   Multipole                     : -0.180207E-08  0.443967E-03  0.200634E-01
   Pulay + GGA                   : -0.320824E-07  0.240534E-02  0.169422E+00
   ----------------------------------------------------------------
   Total forces(   3)            : -0.196643E-06 -0.192498E-03  0.229797E+00
  atom #    4
   Hellmann-Feynman              :  0.162758E-06  0.304181E-02  0.403124E-01
   Ionic forces                  :  0.000000E+00  0.000000E+00  0.000000E+00
   Multipole                     :  0.180207E-08 -0.443967E-03  0.200634E-01
   Pulay + GGA                   :  0.320706E-07 -0.240534E-02  0.169422E+00
   ----------------------------------------------------------------
   Total forces(   4)            :  0.196631E-06  0.192500E-03  0.229797E+00
  atom #    5
   Hellmann-Feynman              :  0.162758E-06  0.304181E-02 -0.403125E-01
   Ionic forces                  :  0.000000E+00  0.000000E+00  0.000000E+00
   Multipole                     :  0.180208E-08 -0.443967E-03 -0.200634E-01
   Pulay + GGA                   :  0.320752E-07 -0.240534E-02 -0.169422E+00
   ----------------------------------------------------------------
   Total forces(   5)            :  0.196635E-06  0.192498E-03 -0.229797E+00
  atom #    6
   Hellmann-Feynman              : -0.162758E-06 -0.304181E-02 -0.403124E-01
   Ionic forces                  :  0.000000E+00  0.000000E+00  0.000000E+00
   Multipole                     : -0.180208E-08  0.443967E-03 -0.200634E-01
   Pulay + GGA                   : -0.320702E-07  0.240534E-02 -0.169422E+00
   ----------------------------------------------------------------
   Total forces(   6)            : -0.196630E-06 -0.192500E-03 -0.229797E+00
  atom #    7
   Hellmann-Feynman              :  0.256938E-06  0.360259E-02 -0.443425E-05
   Ionic forces                  :  0.000000E+00  0.000000E+00  0.000000E+00
   Multipole                     : -0.230239E-08 -0.137932E-02  0.134513E-08
   Pulay + GGA                   : -0.661813E-06 -0.331663E-02  0.584683E-04
   ----------------------------------------------------------------
   Total forces(   7)            : -0.407178E-06 -0.109337E-02  0.540354E-04
  atom #    8
   Hellmann-Feynman              : -0.256678E-06 -0.360259E-02  0.428439E-05
   Ionic forces                  :  0.000000E+00  0.000000E+00  0.000000E+00
   Multipole                     :  0.230189E-08  0.137932E-02 -0.113864E-08
   Pulay + GGA                   :  0.661538E-06  0.331664E-02 -0.593347E-04
   ----------------------------------------------------------------
   Total forces(   8)            :  0.407162E-06  0.109337E-02 -0.550514E-04


  Self-consistency convergence accuracy:
  | Change of charge density      :  0.5769E-06
  | Change of sum of eigenvalues  : -0.2839E-04 eV
  | Change of total energy        :  0.1144E-07 eV
  | Change of forces              :  0.7398E-05 eV/A

  Writing Kohn-Sham eigenvalues.
  K-point:       1 at    0.000000    0.000000    0.000000 (in units of recip. lattice)

  State    Occupation    Eigenvalue [Ha]    Eigenvalue [eV]
      1       2.00000         -76.379877        -2078.40220
      2       2.00000         -76.379877        -2078.40220
      3       2.00000          -6.410699         -174.44400
      4       2.00000          -6.410699         -174.44400
      5       2.00000          -4.624298         -125.83355
      6       2.00000          -4.624297         -125.83351
      7       2.00000          -4.623606         -125.81471
      8       2.00000          -4.623606         -125.81471
      9       2.00000          -4.623605         -125.81471
     10       2.00000          -4.623605         -125.81470
     11       2.00000          -1.996681          -54.33246
     12       2.00000          -1.991805          -54.19977
     13       2.00000          -1.991457          -54.19029
     14       2.00000          -1.986432          -54.05357
     15       2.00000          -1.983792          -53.98173
     16       2.00000          -1.983443          -53.97223
     17       2.00000          -0.725926          -19.75344
     18       2.00000          -0.703542          -19.14434
     19       2.00000          -0.511704          -13.92416
     20       2.00000          -0.371374          -10.10561
     21       2.00000          -0.362247           -9.85725
     22       2.00000          -0.362241           -9.85708
     23       0.73666          -0.336680           -9.16153
     24       0.73372          -0.336675           -9.16140
     25       0.00000          -0.219611           -5.97593
     26       0.00000          -0.195016           -5.30667
     27       0.00000          -0.195012           -5.30655
     28       0.00000          -0.177454           -4.82876
     29       0.00000          -0.177429           -4.82810
     30       0.00000          -0.117272           -3.19114
     31       0.00000          -0.106144           -2.88833
     32       0.00000          -0.106103           -2.88721
     33       0.00000          -0.073416           -1.99776
     34       0.00000          -0.043692           -1.18893
     35       0.00000          -0.000534           -0.01453
     36       0.00000          -0.000520           -0.01415
     37       0.00000           0.125563            3.41675
     38       0.00000           0.174307            4.74313
     39       0.00000           0.174332            4.74381

  What follows are estimated values for band gap, HOMO, LUMO, etc.
  | They are estimated on a discrete k-point grid and not necessarily exact.
  | For converged numbers, create a DOS and/or band structure plot on a denser k-grid.

  Highest occupied state (VBM) at     -9.20521354 eV (relative to internal zero)
  | Occupation number:      1.63142710
  | K-point:       2 at    0.000000    0.000000    0.166667 (in units of recip. lattice)

  Lowest unoccupied state (CBM) at    -9.16153433 eV (relative to internal zero)
  | Occupation number:      0.73665605
  | K-point:       1 at    0.000000    0.000000    0.000000 (in units of recip. lattice)

  ESTIMATED overall HOMO-LUMO gap:      0.04367921 eV between HOMO at k-point 2 and LUMO at k-point 1
  | This appears to be an indirect band gap.
  | Smallest direct gap :      0.69554807 eV for k_point 1 at    0.000000    0.000000    0.000000 (in units of recip. lattice)
  However, this system has fractional occupation numbers. Since we use a finite k-point grid,
  this material is metallic within the approximate finite broadening function (occupation_type)
  applied to determine the occupation numbers.

  Self-consistency cycle converged.

  End self-consistency iteration #    20       :  max(cpu_time)    wall_clock(cpu1)
  | Time for this iteration                    :        4.646 s           4.646 s
  | Charge density & force component update    :        3.893 s           3.893 s
  | Density mixing                             :        0.001 s           0.001 s
  | Hartree multipole update                   :        0.001 s           0.001 s
  | Hartree multipole summation                :        0.473 s           0.473 s
  | Integration                                :        0.244 s           0.244 s
  | Solution of K.-S. eqns.                    :        0.033 s           0.033 s
  | Total energy evaluation                    :        0.001 s           0.001 s

  Partial memory accounting:
  | Current value for overall tracked memory usage on task 0  :           3.944 MB
  | Peak value for overall tracked memory usage on task 0     :          22.199 MB after allocating wave_pulay
  | Largest tracked array allocation on task 0 so far         :           4.298 MB  when allocating hamiltonian_shell
  Note:  These values currently only include a subset of arrays which are explicitly tracked.
  The "true" memory usage will be greater.
------------------------------------------------------------
  |------------------------------------------
  | Final ELSI Output
  |------------------------------------------
  | Number of basis functions :          102
  | Number of electrons       :         48.0
  | Number of states          :           39
  | Solver                    :         ELPA
  | Parallel mode             :  SINGLE_PROC
  | Matrix format             :  BLACS_DENSE
  |------------------------------------------
  | ELSI Project (c)  elsi-interchange.org
  |------------------------------------------
  Removing unitary transformations (pure translations, rotations) from forces on atoms.
  Atomic forces before filtering:
  | Net force on center of mass :  -0.104781E-10  0.148313E-08 -0.987807E-06 eV/A
  Atomic forces after filtering:
  | Net force on center of mass :  -0.850707E-22  0.000000E+00  0.861977E-16 eV/A

  Energy and forces in a compact form:
  | Total energy uncorrected      :         -0.198009480417791E+05 eV
  | Total energy corrected        :         -0.198009483392046E+05 eV  <-- do not rely on this value for anything but (periodic) metals
  | Electronic free energy        :         -0.198009486366301E+05 eV
  Total atomic forces (unitary forces cleaned) [eV/Ang]:
  |   1          0.131384837018096E-06         -0.222984336126140E-05         -0.416247903278699E-06
  |   2         -0.131370657749899E-06          0.222945832656055E-05          0.682199490630940E-06
  |   3         -0.196641265835605E-06         -0.192498034885149E-03          0.229797600329841E+00
  |   4          0.196632014656722E-06          0.192499906593664E-03          0.229797532846019E+00
  |   5          0.196636586397039E-06          0.192497650265718E-03         -0.229797348773229E+00
  |   6         -0.196628762333687E-06         -0.192500264761408E-03         -0.229797281281377E+00
  |   7         -0.407176452256417E-06         -0.109336583769274E-02          0.541588837014967E-04
  |   8          0.407163700103751E-06          0.109336696551462E-02         -0.549279565429351E-04

  ------------------------------------ 
  Start decomposition of the XC Energy 
  ------------------------------------ 
  X and C from original XC functional choice 
  Hartree-Fock Energy :          0.000000000 Ha              0.000000000 eV
  X Energy            :        -56.490341899 Ha          -1537.180413950 eV
  C Energy            :         -1.721786202 Ha            -46.852186372 eV
  Total XC Energy     :        -58.212128101 Ha          -1584.032600322 eV
  ------------------------------------ 
  LDA X and C from self-consistent density 
  X Energy LDA        :        -52.000669359 Ha          -1415.010208175 eV
  C Energy LDA        :         -3.414467967 Ha            -92.912400701 eV
  ------------------------------------ 
  End decomposition of the XC Energy 
  ------------------------------------ 

------------------------------------------------------------

------------------------------------------------------------------------------
  Final output of selected total energy values:

  The following output summarizes some interesting total energy values
  at the end of a run (AFTER all relaxation, molecular dynamics, etc.).

  | Total energy of the DFT / Hartree-Fock s.c.f. calculation      :         -19800.948041779 eV
  | Final zero-broadening corrected energy (caution - metals only) :         -19800.948339205 eV
  | For reference only, the value of 1 Hartree used in FHI-aims is :             27.211384500 eV

  Before relying on these values, please be sure to understand exactly which
  total energy value is referred to by a given number. Different objects may
  all carry the same name 'total energy'. Definitions:

  Total energy of the DFT / Hartree-Fock s.c.f. calculation:
  | Note that this energy does not include ANY quantities calculated after the
  | s.c.f. cycle, in particular not ANY RPA, MP2, etc. many-body perturbation terms.

  Final zero-broadening corrected energy:
  | For metallic systems only, a broadening of the occupation numbers at the Fermi
  | level can be extrapolated back to zero broadening by an electron-gas inspired
  | formula. For all systems that are not real metals, this value can be
  | meaningless and should be avoided.

------------------------------------------------------------------------------
  Methods described in the following list of references were used in this FHI-aims run.
  If you publish the results, please make sure to cite these reference if they apply.
  FHI-aims is an academic code, and for our developers (often, Ph.D. students
  and postdocs), scientific credit in the community is essential.
  Thank you for helping us!

  For any use of FHI-aims, please cite:

    Volker Blum, Ralf Gehrke, Felix Hanke, Paula Havu, Ville Havu,
    Xinguo Ren, Karsten Reuter, and Matthias Scheffler
    'Ab initio molecular simulations with numeric atom-centered orbitals'
    Computer Physics Communications 180, 2175-2196 (2009)
    http://dx.doi.org/10.1016/j.cpc.2009.06.022


  The provided symmetry information was generated with SPGlib:

    Atsushi Togo, Yusuke Seto, Dimitar Pashov
    SPGlib 1.7.3 obtained from http://spglib.sourceforge.net
    Copyright (C) 2008 Atsushi Togo


  The scalable eigensolver library ELPA was used in your run.
  ELPA is essential especially for large systems on hundreds or thousands of CPUs.
  For ELPA, please cite:

    Andreas Marek, Volker Blum, Rainer Johanni, Ville Havu, Bruno Lang,
    Thomas Auckenthaler, Alexander Heinecke, Hans-Joachim Bungartz, and Hermann Lederer,
    'The ELPA Library - Scalable Parallel Eigenvalue Solutions
    for Electronic Structure Theory and Computational Science'
    The Journal of Physics: Condensed Matter 26, 213201 (2014).
    http://dx.doi.org/10.1088/0953-8984/26/21/213201


  The ELSI infrastructure was used in your run to solve the Kohn-Sham electronic structure.
  Please check out http://elsi-interchange.org to learn more.
  If scalability is important for your project, please acknowledge ELSI by citing:

    V. W-z. Yu, F. Corsetti, A. Garcia, W. P. Huhn, M. Jacquelin, W. Jia,
    B. Lange, L. Lin, J. Lu, W. Mi, A. Seifitokaldani, A. Vazquez-Mayagoitia,
    C. Yang, H. Yang, and V. Blum
    'ELSI: A unified software interface for Kohn-Sham electronic structure solvers'
    Computer Physics Communications 222, 267-285 (2018).
    http://dx.doi.org/10.1016/j.cpc.2017.09.007


  For the real-space grid partitioning and parallelization used in this calculation, please cite:

    Ville Havu, Volker Blum, Paula Havu, and Matthias Scheffler,
    'Efficient O(N) integration for all-electron electronic structure calculation'
    'using numerically tabulated basis functions'
    Journal of Computational Physics 228, 8367-8379 (2009).
    http://dx.doi.org/10.1016/j.jcp.2009.08.008

  Of course, there are many other important community references, e.g., those cited in the
  above references. Our list is limited to references that describe implementations in the
  FHI-aims code. The reason is purely practical (length of this list) - please credit others as well.

------------------------------------------------------------
          Leaving FHI-aims.
          Date     :  20220721, Time     :  124624.205

          Computational steps:
          | Number of self-consistency cycles          :           20
          | Number of SCF (re)initializations          :            1

          Detailed time accounting                     :  max(cpu_time)    wall_clock(cpu1)
          | Total time                                 :       25.321 s          25.329 s
          | Preparation time                           :        0.413 s           0.416 s
          | Boundary condition initalization           :        0.077 s           0.077 s
          | Grid partitioning                          :        0.037 s           0.037 s
          | Preloading free-atom quantities on grid    :        0.009 s           0.009 s
          | Free-atom superposition energy             :        0.023 s           0.023 s
          | Total time for integrations                :        5.307 s           5.306 s
          | Total time for solution of K.-S. equations :        0.696 s           0.700 s
          | Total time for density & force components  :       12.455 s          12.445 s
          | Total time for mixing & preconditioning    :        1.991 s           1.992 s
          | Total time for Hartree multipole update    :        0.026 s           0.028 s
          | Total time for Hartree multipole sum       :        3.921 s           3.922 s
          | Total time for total energy evaluation     :        0.006 s           0.009 s

          Partial memory accounting:
          | Residual value for overall tracked memory usage across tasks :           0.000 MB (should be 0.000 MB)
          | Peak values for overall tracked memory usage (after allocating wave_pulay):
          |   Minimum:       21.316 MB (on task  8)
          |   Maximum:       22.571 MB (on task  6)
          |   Average:       22.018 MB
          | Largest tracked array allocation (hamiltonian_shell):
          |   Minimum:        4.010 MB (on task  8)
          |   Maximum:        4.416 MB (on task  6)
          |   Average:        4.221 MB
          Note:  These values currently only include a subset of arrays which are explicitly tracked.
          The "true" memory usage will be greater.

          Have a nice day.
------------------------------------------------------------
