  MPI-parallelism will be employed.
------------------------------------------------------------
          Invoking FHI-aims ...
          Version 171221_1
          Compiled on 2020/09/23 at 19:46:43 on host login.service.

          When using FHI-aims, please cite the following reference:

          Volker Blum, Ralf Gehrke, Felix Hanke, Paula Havu,
          Ville Havu, Xinguo Ren, Karsten Reuter, and Matthias Scheffler,
          'Ab Initio Molecular Simulations with Numeric Atom-Centered Orbitals',
          Computer Physics Communications 180, 2175-2196 (2009)

          For any questions about FHI-aims, please visit the aimsclub website
          with its forums and wiki. Contributions to both the forums and the
          wiki are warmly encouraged - they are for you, and everyone is welcome there.

------------------------------------------------------------



  Date     :  20220704, Time     :  045029.130
  Time zero on CPU 1             :   0.877750000000000E-01  s.
  Internal wall clock time zero  :           426142229.130  s.

  FHI-aims created a unique identifier for this run for later identification
  aims_uuid : 82B33F28-9D2C-426A-A6F2-3D4E8426DCC6

  Using       20 parallel tasks.
  Task        0 on host node108 reporting.
  Task        1 on host node108 reporting.
  Task        2 on host node108 reporting.
  Task        3 on host node108 reporting.
  Task        4 on host node108 reporting.
  Task        5 on host node108 reporting.
  Task        6 on host node108 reporting.
  Task        7 on host node108 reporting.
  Task        8 on host node108 reporting.
  Task        9 on host node108 reporting.
  Task       10 on host node108 reporting.
  Task       11 on host node108 reporting.
  Task       12 on host node108 reporting.
  Task       13 on host node108 reporting.
  Task       14 on host node108 reporting.
  Task       15 on host node108 reporting.
  Task       16 on host node108 reporting.
  Task       17 on host node108 reporting.
  Task       18 on host node108 reporting.
  Task       19 on host node108 reporting.

  Performing system and environment tests:
  *** Environment variable OMP_NUM_THREADS is not set
  *** For performance reasons you might want to set it to 1
  | Maximum stacksize for task 0: unlimited
  | Maximum stacksize for task 1: unlimited
  | Maximum stacksize for task 2: unlimited
  | Maximum stacksize for task 3: unlimited
  | Maximum stacksize for task 4: unlimited
  | Maximum stacksize for task 5: unlimited
  | Maximum stacksize for task 6: unlimited
  | Maximum stacksize for task 7: unlimited
  | Maximum stacksize for task 8: unlimited
  | Maximum stacksize for task 9: unlimited
  | Maximum stacksize for task 10: unlimited
  | Maximum stacksize for task 11: unlimited
  | Maximum stacksize for task 12: unlimited
  | Maximum stacksize for task 13: unlimited
  | Maximum stacksize for task 14: unlimited
  | Maximum stacksize for task 15: unlimited
  | Maximum stacksize for task 16: unlimited
  | Maximum stacksize for task 17: unlimited
  | Maximum stacksize for task 18: unlimited
  | Maximum stacksize for task 19: unlimited
  | Current stacksize for task 0: unlimited
  | Current stacksize for task 1: unlimited
  | Current stacksize for task 2: unlimited
  | Current stacksize for task 3: unlimited
  | Current stacksize for task 4: unlimited
  | Current stacksize for task 5: unlimited
  | Current stacksize for task 6: unlimited
  | Current stacksize for task 7: unlimited
  | Current stacksize for task 8: unlimited
  | Current stacksize for task 9: unlimited
  | Current stacksize for task 10: unlimited
  | Current stacksize for task 11: unlimited
  | Current stacksize for task 12: unlimited
  | Current stacksize for task 13: unlimited
  | Current stacksize for task 14: unlimited
  | Current stacksize for task 15: unlimited
  | Current stacksize for task 16: unlimited
  | Current stacksize for task 17: unlimited
  | Current stacksize for task 18: unlimited
  | Current stacksize for task 19: unlimited
  | Checking for scalapack...
  | Testing pdtran()...
  | All pdtran() tests passed.

  Obtaining array dimensions for all initial allocations:
  
  -----------------------------------------------------------------------
  Parsing control.in (first pass over file, find array dimensions only).
  The contents of control.in will be repeated verbatim below
  unless switched off by setting 'verbatim_writeout .false.' .
  in the first line of control.in .
  -----------------------------------------------------------------------
  
  #===============================================================================
  # FHI-aims file: ./control.in
  # Created using the Atomic Simulation Environment (ASE)
  # Wed Mar 24 12:41:28 2021
  #===============================================================================
  xc                                 pbe
  sc_accuracy_etot                   1e-06
  sc_accuracy_eev                    0.001
  sc_accuracy_rho                    1e-06
  sc_accuracy_forces                 0.0001
  friction_temperature               300  # default 300
  
    k_grid                           1  1  2
  
  
  
  ################################################################################
  #
  #  FHI-aims code project
  # Volker Blum, Fritz Haber Institute Berlin, 2009
  #
  #  Suggested "tight" defaults for Li atom (to be pasted into control.in file)
  #
  #  2016/03/22: Increased cutoff radius to 5.0 AA (Xinguo Ren, Aug 15, 2015)
  #
  ################################################################################
    species        Li
  #     global species definitions
      nucleus             3
      mass                6.941
  #
      l_hartree           6
  #
      cut_pot             5.0  2.0  1.0
      basis_dep_cutoff    1e-4
  #
      radial_base         29 7.0
      radial_multiplier   2
      angular_grids       specified
        division   0.4484  110
        division   0.5659  194
        division   0.6315  302
        division   0.6662  434
  #      division   0.8186  590
  #      division   0.9037  770
  #      division   6.2760  974
  #      outer_grid   974
        outer_grid  434
  ################################################################################
  #
  #  Definition of "minimal" basis
  #
  ################################################################################
  #     valence basis states
      valence      2  s   1.
  #     ion occupancy
      ion_occ      1  s   2.
  ################################################################################
  #
  #  Suggested additional basis functions. For production calculations,
  #  uncomment them one after another (the most important basis functions are
  #  listed first).
  #
  #  Constructed for dimers: 1.80 A, 2.25 A, 2.75 A, 3.50 A, 4.50 A
  #
  ################################################################################
  #  "First tier" - improvements: -189.23 meV to -6.35 meV
       hydro 2 p 1.6
       hydro 2 s 2
       hydro 3 d 2.6
  #  "Second tier" - improvements: -4.69 meV to -0.41 meV
       hydro 3 p 4.6
       hydro 2 p 1.8
       hydro 3 s 6.2
       hydro 4 d 4.7
       hydro 4 f 4.1
  #  "Third tier" - improvements: -0.20 meV to -0.15 meV
  #     hydro 4 d 0.95
  #     hydro 3 p 6.2
  #     hydro 3 s 1.7
  #  Further functions, listed for completeness
  #     VB: The following functions are only listed for completeness; test very
  #         carefully before any kind of production use. From the point of view
  #         of the basis construction, their main role is to fill up space,
  #         and they are solely determined by the location of the cutoff potential.
  #     hydro 3 p 0.1  # -0.15 meV
  #     hydro 4 d 5    # -0.12 meV
  #     hydro 4 f 0.1  # -0.14 meV
  #     hydro 5 g 0.1  # -0.06 meV
  
  
  ################################################################################
  #
  # For methods that use the localized form of the "resolution of identity" for
  # the two-electron Coulomb operator (RI_method LVL), particularly Hartree-Fock and
  # hybrid density functional calculations, the highest accuracy can be obtained by
  # uncommenting the line beginning with "for_aux"  below, thus adding an extra g radial
  # function to the construction of the product basis set for the expansion.
  # See Ref. New J. Phys. 17, 093020 (2015) for more information, particularly Figs. 1 and 6.
  #
  ################################################################################
  #
  # for_aux hydro 5 g 6.0
  ################################################################################
  #
  #  FHI-aims code project
  # Volker Blum, Fritz Haber Institute Berlin, 2010
  #
  #  Suggested "tight" defaults for P atom (to be pasted into control.in file)
  #
  #  Revised Jan 04, 2011, following tests (SiC) done by Lydia Nemec:
  #     d function of tier 2 now enabled by default.
  #
  ################################################################################
    species        P
  #     global species definitions
      nucleus             15
      mass                30.973762
  #
      l_hartree           6
  #
      cut_pot             4.0          2.0  1.0
      basis_dep_cutoff    1e-4
  #
      radial_base         43 7.0
      radial_multiplier   2
      angular_grids       specified
        division   0.2995   50
        division   0.5998  110
        division   0.9240  194
        division   1.0921  302
        division   1.2863  434
  #      division   1.3165  590
  #      division   1.4113  770
  #      division   1.5128  974
  #      division   2.4980 1202
        outer_grid  434
  ################################################################################
  #
  #  Definition of "minimal" basis
  #
  ################################################################################
  #     valence basis states
      valence      3  s   2.
      valence      3  p   3.
  #     ion occupancy
      ion_occ      3  s   1.
      ion_occ      3  p   2.
  ################################################################################
  #
  #  Suggested additional basis functions. For production calculations,
  #  uncomment them one after another (the most important basis functions are
  #  listed first).
  #
  #  Constructed for dimers: 1.625 A, 1.875 A, 2.5 A, 3.25 A, 4.0 A
  #
  ################################################################################
  #  "First tier" - improvements: -726.20 meV to -35.91 meV
       ionic 3 d auto
       ionic 3 p auto
       hydro 4 f 6.2
       hydro 5 g 8.6
       ionic 3 s auto
  #  "Second tier" - improvements: -16.02 meV to -1.71 meV
       hydro 4 d 6.2
  #     hydro 4 p 9.2
  #     hydro 5 f 9.8
  #     hydro 1 s 0.7
  #     hydro 5 g 13.2
  #  "Third tier" - improvements: -1.82 meV to -0.20 meV
  #     hydro 3 p 2.5
  #     hydro 4 d 6.4
  #     hydro 5 f 11.2
  #     hydro 2 s 1.5
  #  "Fourth tier" - improvements: -0.91 meV to -0.17 meV
  #     hydro 3 d 16.8
  #     hydro 5 g 18
  #     hydro 4 p 4.5
  #     hydro 3 s 2.1
  #  Further basis functions that fell out of the optimization - < -0.09 meV
  #     hydro 4 p 10.4
  #     hydro 4 d 17.6
  #     hydro 4 s 11.2
  ################################################################################
  #
  # For methods that use the localized form of the "resolution of identity" for
  # the two-electron Coulomb operator (RI_method LVL), particularly Hartree-Fock and
  # hybrid density functional calculations, the highest accuracy can be obtained by
  # uncommenting the line beginning with "for_aux"  below, thus adding an extra g radial
  # function to the construction of the product basis set for the expansion.
  # See Ref. New J. Phys. 17, 093020 (2015) for more information, particularly Figs. 1 and 6.
  #
  ################################################################################
  #
  # for_aux hydro 5 g 6.0
  ################################################################################
  #
  #  FHI-aims code project
  # Volker Blum, Fritz Haber Institute Berlin, 2009
  #
  #  Suggested "tight" defaults for S atom (to be pasted into control.in file)
  #
  #  Revised Jan 04, 2011, following tests (SiC) done by Lydia Nemec:
  #     d and g functions of tier 2 now enabled by default.
  #
  ################################################################################
    species        S
  #     global species definitions
      nucleus             16
      mass                32.065
  #
      l_hartree           6
  #
      cut_pot             4.0          2.0  1.0
      basis_dep_cutoff    1e-4
  #
      radial_base         44 7.0
      radial_multiplier   2
      angular_grids       specified
        division   0.4665  110
        division   0.5810  194
        division   0.7139  302
        division   0.8274  434
  #      division   0.9105  590
  #      division   1.0975  770
  #      division   1.2028  974
  #      outer_grid  974
        outer_grid  434
  ################################################################################
  #
  #  Definition of "minimal" basis
  #
  ################################################################################
  #     valence basis states
      valence      3  s   2.
      valence      3  p   4.
  #     ion occupancy
      ion_occ      3  s   1.
      ion_occ      3  p   3.
  ################################################################################
  #
  #  Suggested additional basis functions. For production calculations,
  #  uncomment them one after another (the most important basis functions are
  #  listed first).
  #
  #  Constructed for dimers: 1.6 A, 1.9 A, 2.5 A, 3.25 A, 4.0 A
  #
  ################################################################################
  #  "First tier" - improvements: -652.81 meV to -45.53 meV
       ionic 3 d auto
       hydro 2 p 1.8
       hydro 4 f 7
       ionic 3 s auto
  #  "Second tier" - improvements: -30.20 meV to -1.74 meV
       hydro 4 d 6.2
       hydro 5 g 10.8
  #     hydro 4 p 4.9
  #     hydro 5 f 10
  #     hydro 1 s 0.8
  #  "Third tier" - improvements: -1.04 meV to -0.20 meV
  #     hydro 3 d 3.9
  #     hydro 3 d 2.7
  #     hydro 5 g 12
  #     hydro 4 p 10.4
  #     hydro 5 f 12.4
  #     hydro 2 s 1.9
  #  "Fourth tier" - improvements: -0.35 meV to -0.06 meV
  #     hydro 4 d 10.4
  #     hydro 4 p 7.2
  #     hydro 4 d 10
  #     hydro 5 g 19.2
  #     hydro 4 s 12
  
  ################################################################################
  #
  # For methods that use the localized form of the "resolution of identity" for
  # the two-electron Coulomb operator (RI_method LVL), particularly Hartree-Fock and
  # hybrid density functional calculations, the highest accuracy can be obtained by
  # uncommenting the line beginning with "for_aux"  below, thus adding an extra g radial
  # function to the construction of the product basis set for the expansion.
  # See Ref. New J. Phys. 17, 093020 (2015) for more information, particularly Figs. 1 and 6.
  #
  ################################################################################
  #
  # for_aux hydro 5 g 6.0
  ################################################################################
  #
  #  FHI-aims code project
  # Volker Blum, Fritz Haber Institute Berlin, 2009
  #
  #  Suggested "tight" defaults for Cl atom (to be pasted into control.in file)
  #
  #  Revised Jan 04, 2011, following tests (SiC) done by Lydia Nemec:
  #     d function of tier 2 now enabled by default.
  #
  ################################################################################
    species        Cl
  #     global species definitions
      nucleus             17
      mass                35.453
  #
      l_hartree           6
  #
      cut_pot             4.0          2.0  1.0
      basis_dep_cutoff    1e-4
  #
      radial_base         45 7.0
      radial_multiplier   2
      angular_grids       specified
        division   0.4412  110
        division   0.5489  194
        division   0.6734  302
        division   0.7794  434
  #      division   0.9402  590
  #      division   1.0779  770
  #      division   1.1792  974
  #      outer_grid  974
        outer_grid  434
  ################################################################################
  #
  #  Definition of "minimal" basis
  #
  ################################################################################
  #     valence basis states
      valence      3  s   2.
      valence      3  p   5.
  #     ion occupancy
      ion_occ      3  s   1.
      ion_occ      3  p   4.
  ################################################################################
  #
  #  Suggested additional basis functions. For production calculations,
  #  uncomment them one after another (the most important basis functions are
  #  listed first).
  #
  #  Constructed for dimers: 1.65 A, 2.0 A, 2.5 A, 3.25 A, 4.0 A
  #
  ################################################################################
  #  "First tier" - improvements: -429.57 meV to -15.03 meV
       ionic 3 d auto
       hydro 2 p 1.9
       hydro 4 f 7.4
       ionic 3 s auto
       hydro 5 g 10.4
  #  "Second tier" - improvements: -7.84 meV to -0.48 meV
       hydro 3 d 3.3
  #     hydro 5 f 9.8
  #     hydro 1 s 0.75
  #     hydro 5 g 11.2
  #     hydro 4 p 10.4
  #  "Third tier" - improvements: -1.00 meV to -0.12 meV
  #     hydro 4 d 12.8
  #     hydro 4 f 4.6
  #     hydro 4 d 10.8
  #     hydro 2 s 1.8
  #     hydro 3 p 3
  #  Further functions that fell out - improvements: -0.10 meV and below
  #     hydro 5 f 14.4
  #     hydro 4 s 12.8
  #     hydro 3 d 11.6
  #     hydro 4 s 4.1
  ################################################################################
  #
  # For methods that use the localized form of the "resolution of identity" for
  # the two-electron Coulomb operator (RI_method LVL), particularly Hartree-Fock and
  # hybrid density functional calculations, the highest accuracy can be obtained by
  # uncommenting the line beginning with "for_aux"  below, thus adding an extra g radial
  # function to the construction of the product basis set for the expansion.
  # See Ref. New J. Phys. 17, 093020 (2015) for more information, particularly Figs. 1 and 6.
  #
  ################################################################################
  #
  # for_aux hydro 5 g 6.0
  
  -----------------------------------------------------------------------
  Completed first pass over input file control.in .
  -----------------------------------------------------------------------
  
  
  -----------------------------------------------------------------------
  Parsing geometry.in (first pass over file, find array dimensions only).
  The contents of geometry.in will be repeated verbatim below
  unless switched off by setting 'verbatim_writeout .false.' .
  in the first line of geometry.in .
  -----------------------------------------------------------------------
  
  #=======================================================
  # FHI-aims file: ./data/test_rep/geometry.in.0
  # Created using the Atomic Simulation Environment (ASE)
  # Mon Jul  4 10:21:46 2022
  #=======================================================
  lattice_vector 18.8104323387299992 0.0000000000000000 0.0000000000000000
  lattice_vector 0.0000000000000000 15.6154021262949989 0.0000000000000000
  lattice_vector 0.0000000000000000 0.0000000000000000 7.2192153215649997
  atom 2.5962479908999998 2.3110686080999998 4.4741265027499999 Li
  atom 1.6793835206499999 7.8358553352999989 4.0609747137499994 Li
  atom 8.6112404760499999 3.5318365383999999 2.7206786146999997 Li
  atom 6.5697563091499998 1.3405892595499997 6.0842580083000000 Li
  atom 7.7319305156500002 0.8907008261500000 2.9485506411499998 Li
  atom 6.4238453160999995 5.7080698823499993 3.3235743027000000 Li
  atom 12.0353991922499990 2.3050226855499996 2.4881978741499999 Li
  atom 11.4756073944499981 8.1306296022000009 4.2045086120499997 Li
  atom 18.4620284197000011 4.4213594424500000 4.0857564802499997 Li
  atom 13.3792486437499996 2.7931042900500000 6.0524210639499998 Li
  atom 17.1164063679499989 0.9966350668000000 4.4030041409499994 Li
  atom 15.2604022026999999 6.9486365042499996 5.1307464966999996 Li
  atom 3.3106181342999998 10.6112276653999995 4.4169780937500001 Li
  atom 1.3029914980999999 15.5547860689999986 4.1253013673999996 Li
  atom 8.7554097020500006 11.8594618095000008 3.8815435710999995 Li
  atom 6.3127976985499998 8.4056682347000002 4.5405500020999998 Li
  atom 7.9524033901499998 8.7445526298999994 2.1294265969499997 Li
  atom 6.2745444066999996 13.8292956464000003 4.4074263215999991 Li
  atom 11.9521755641999992 10.5829188890000001 2.5053730343499998 Li
  atom 10.8880762568999980 15.5223317300999994 3.3123475921999996 Li
  atom 0.1584440666000000 12.2494276533999997 4.2383417134999997 Li
  atom 15.5344813722499993 9.9227831683000005 6.0269241402999993 Li
  atom 17.5489387136499992 8.4327958893999995 3.1065399959500000 Li
  atom 15.8089036257499984 14.3444465005499993 5.0081840697499995 Li
  atom 8.7203966473999994 6.8534272439499997 4.2937383756999994 P
  atom 4.4815886302000001 0.6165739210000000 3.2372055951499998 P
  atom 18.2965308130500013 7.6016636181499990 6.0733856496999996 P
  atom 14.2197077176499995 1.0988783579499999 2.7932235444999995 P
  atom 8.8440032649500004 14.9392723888499983 5.0458124059999996 P
  atom 4.2341943231999997 8.1206286880999983 2.6229160270500000 P
  atom 18.3052076950499973 15.2675313361500002 6.1942892750000000 P
  atom 14.1116138733499987 8.5175928437999993 3.1520959415999998 P
  atom 1.1473153676500001 0.7011615153499999 6.4240830155999999 S
  atom 2.7815427150000001 0.3961229905499999 2.3952402164500000 S
  atom 5.2273257225499998 2.4869406621999999 2.1960760034500000 S
  atom 8.5907070173999998 5.8857631823999998 2.5145188192500001 S
  atom 7.4516758368999998 14.7304808530500004 6.3320193041000001 S
  atom 5.9297899586499998 7.3395186715999996 2.1435027460000002 S
  atom 10.3519135203000001 6.1819019295499995 5.2421844103500002 S
  atom 4.3587522697999992 1.1789396544999999 5.1393692543500000 S
  atom 0.3559848740000000 2.5208737311999996 2.1653438501999998 S
  atom 1.2111209795500000 4.3645147864500000 2.2689094482500001 S
  atom 6.8497458276999996 2.0967784314499998 1.2581283978999998 S
  atom 7.3250470536999996 2.8939359818999995 4.5429743052000005 S
  atom 10.6390982694999980 4.4364962370500001 4.2172867637499998 S
  atom 5.7587794639999990 3.6797302327499999 3.9408951099000000 S
  atom 2.9590308796500002 4.3009561621999994 3.2105877436999997 S
  atom 2.8423481660999999 5.5011724232999999 4.9168359447999999 S
  atom 0.3710322128000000 2.1049983539500001 4.0368125771500001 S
  atom 2.1495951092999999 4.4446444925000002 6.3237524040999995 S
  atom 9.4262732226999990 1.1492659323499999 4.8670202570999992 S
  atom 13.3634970576000001 0.9913904037000001 1.0857185475500000 S
  atom 15.1509640523499982 3.0204722103999999 2.8530180759000001 S
  atom 18.1925562171999999 6.6704584494999990 4.2361312686999995 S
  atom 16.6842720446999984 0.5135844010500000 6.6459592585999996 S
  atom 15.3700814088999973 7.1949470578999994 2.7774563222999995 S
  atom 18.3987653233500019 6.1273622765999995 0.1719713892500000 S
  atom 12.8396281598499993 1.2153119872000000 4.2204300961999994 S
  atom 9.7794668608500004 1.6108439513999999 0.3522346891500000 S
  atom 9.6173182454999999 3.4762714316999999 0.1063533616500000 S
  atom 16.3838056884499963 3.1910766816999998 4.3223037594500004 S
  atom 15.4855526786500004 3.8303007658499997 6.1528674253499993 S
  atom 0.1496648401500000 4.4986624596000002 6.3756451442500000 S
  atom 14.1509194013499986 5.0127047900999999 5.7727475210999994 S
  atom 11.5451637259000002 4.1581129518999997 7.2128279664499999 S
  atom 11.9515846974499986 5.4957345130999995 1.5214296103500000 S
  atom 9.8790811523999995 1.5962985318000000 2.3161022495999997 S
  atom 12.3255988186999996 4.6879096311499993 3.1727943876999998 S
  atom 1.0286212399999999 8.7889941039499995 6.2862071158999999 S
  atom 2.6503232230500000 7.3270256728499996 1.7999064923499999 S
  atom 4.4636423169999997 10.0200605557999989 1.9622763969000001 S
  atom 8.5057550771499990 13.9086607411499994 3.3122049487499998 S
  atom 7.1840339746999993 6.6275950622499993 5.4307305721499999 S
  atom 5.8107628379499996 15.0301387678499996 2.6512987485999999 S
  atom 10.6817909094499992 14.4454692288499995 5.6910290521500002 S
  atom 4.0444361447499997 8.4754596303499987 4.5726588963000001 S
  atom 1.2203947550999998 10.5575140536000003 1.9322479969999997 S
  atom 1.5619197579499999 12.5152416177500001 2.3110572118999997 S
  atom 6.3352495102499997 10.6391939249999989 2.2061301488999998 S
  atom 6.6669051055999997 10.7767030030999997 4.2278953500999998 S
  atom 10.5719693124999985 12.4662794879500005 5.3087374298499990 S
  atom 5.3561598842000002 11.8757136447500002 5.1579056638499994 S
  atom 3.2701810470499995 12.7083258088999997 3.3873932031999998 S
  atom 2.8816464056999997 13.8670422319999993 5.0590113896500002 S
  atom 0.8529735075000000 9.9767099211499986 3.7408952559999999 S
  atom 2.4346125997499999 12.8041260955500000 6.5513847540999999 S
  atom 9.2436090884999995 8.7508947633999998 4.2769158459999996 S
  atom 12.4633335407999990 8.4109949198500011 2.1506721689499999 S
  atom 14.8260804398499992 10.2922799464499981 2.4463140984000002 S
  atom 18.1249059068499996 14.3296931743999991 4.3524935206500004 S
  atom 16.6281284982000024 8.2315769394500009 6.8177891738499996 S
  atom 15.5297891958999976 15.4443962684999985 2.9687206801499997 S
  atom 18.3040842640000001 13.8089457173000003 0.2810845189500000 S
  atom 13.6294330304499987 8.7281835200000000 5.0589502875500001 S
  atom 9.9385165096999994 11.6860462387999995 0.7929623628000000 S
  atom 11.0129621510999982 13.3193942243499990 1.3985120790999999 S
  atom 16.7162180870500023 10.5147395531000001 2.6534110850000001 S
  atom 16.9531645933000021 11.1235797520999995 4.7456045751499998 S
  atom 0.4629047282500000 12.3713466605499995 6.5427159546999993 S
  atom 15.4414877028999982 12.0735437319000010 5.4359462232000002 S
  atom 12.8545119456999988 12.7080158685499995 1.6559382075000000 S
  atom 13.1805851405999999 13.3471743343000000 3.5631487331499998 S
  atom 9.6946242370999993 10.5099573575999994 2.2456614814500000 S
  atom 12.4557554230999994 12.0259982040999986 4.7085063674000001 S
  
  -----------------------------------------------------------------------
  Completed first pass over input file geometry.in .
  -----------------------------------------------------------------------
  

  Basic array size parameters:
  | Number of species                 :        4
  | Number of atoms                   :      104
  | Number of lattice vectors         :        3
  | Max. basis fn. angular momentum   :        4
  | Max. atomic/ionic basis occupied n:        3
  | Max. number of basis fn. types    :        3
  | Max. radial fns per species/type  :        8
  | Max. logarithmic grid size        :     1362
  | Max. radial integration grid size :       91
  | Max. angular integration grid size:      434
  | Max. angular grid division number :        8
  | Radial grid for Hartree potential :     1362
  | Number of spin channels           :        1

------------------------------------------------------------
          Reading file control.in.
------------------------------------------------------------
  XC: Using PBE gradient-corrected functionals.
  Convergence accuracy of total energy:  0.1000E-05
  Convergence accuracy of sum of eigenvalues:  0.1000E-02
  Convergence accuracy of self-consistent charge density:  0.1000E-05
  Convergence accuracy of forces:  0.1000E-03
  Friction is calculated at temperature of   0.3000E+03 K
  Found k-point grid:         1         1         2
 
  Reading configuration options for species Li                  .
  | Found nuclear charge :   3.0000
  | Found atomic mass :    6.94100000000000      amu
  | Found l_max for Hartree potential  :   6
  | Found cutoff potl. onset [A], width [A], scale factor :    5.00000    2.00000    1.00000
  | Threshold for basis-dependent cutoff potential is   0.100000E-03
  | Found data for basic radial integration grid :    29 points, outermost radius =    7.000 A
  | Found multiplier for basic radial grid :   2
  | Found angular grid specification: user-specified.
  | Specified grid contains     5 separate shells.
  | Check grid settings after all constraints further below.
  | Found free-atom valence shell :  2 s   1.000
  | Found free-ion valence shell :  1 s   2.000
  | Found hydrogenic basis function :  2 p   1.600
  | Found hydrogenic basis function :  2 s   2.000
  | Found hydrogenic basis function :  3 d   2.600
  | Found hydrogenic basis function :  3 p   4.600
  | Found hydrogenic basis function :  2 p   1.800
  | Found hydrogenic basis function :  3 s   6.200
  | Found hydrogenic basis function :  4 d   4.700
  | Found hydrogenic basis function :  4 f   4.100
  Species Li                  : Missing cutoff potential type.
  Defaulting to exp(1/x)/(1-x)^2 type cutoff potential.
  Species Li: No 'logarithmic' tag. Using default grid for free atom:
  | Default logarithmic grid data [bohr] : 0.1000E-03 0.1000E+03 0.1012E+01
  Species Li: On-site basis accuracy parameter (for Gram-Schmidt orthonormalisation) not specified.
  Using default value basis_acc =  0.1000000E-03.
  Species Li                  : Using default innermost maximum threshold i_radial=  2 for radial functions.
  Species Li                  : Default cutoff onset for free atom density etc. : 0.50000000E+01 AA.
  Species Li                  : Basic radial grid will be enhanced according to radial_multiplier =   2, to contain    59 grid points.
 
  Reading configuration options for species P                   .
  | Found nuclear charge :  15.0000
  | Found atomic mass :    30.9737620000000      amu
  | Found l_max for Hartree potential  :   6
  | Found cutoff potl. onset [A], width [A], scale factor :    4.00000    2.00000    1.00000
  | Threshold for basis-dependent cutoff potential is   0.100000E-03
  | Found data for basic radial integration grid :    43 points, outermost radius =    7.000 A
  | Found multiplier for basic radial grid :   2
  | Found angular grid specification: user-specified.
  | Specified grid contains     6 separate shells.
  | Check grid settings after all constraints further below.
  | Found free-atom valence shell :  3 s   2.000
  | Found free-atom valence shell :  3 p   3.000
  | Found free-ion valence shell :  3 s   1.000
  | Found free-ion valence shell :  3 p   2.000
  | Found ionic basis function :  3 d , default cutoff radius.
  | Found ionic basis function :  3 p , default cutoff radius.
  | Found hydrogenic basis function :  4 f   6.200
  | Found hydrogenic basis function :  5 g   8.600
  | Found ionic basis function :  3 s , default cutoff radius.
  | Found hydrogenic basis function :  4 d   6.200
  Species P                   : Missing cutoff potential type.
  Defaulting to exp(1/x)/(1-x)^2 type cutoff potential.
  Species P : No 'logarithmic' tag. Using default grid for free atom:
  | Default logarithmic grid data [bohr] : 0.1000E-03 0.1000E+03 0.1012E+01
  | Will include ionic basis functions of  2.0-fold positive P                    ion.
  Species P : On-site basis accuracy parameter (for Gram-Schmidt orthonormalisation) not specified.
  Using default value basis_acc =  0.1000000E-03.
  Species P                   : Using default innermost maximum threshold i_radial=  2 for radial functions.
  Species P                   : Default cutoff onset for free atom density etc. : 0.40000000E+01 AA.
  Species P                   : Basic radial grid will be enhanced according to radial_multiplier =   2, to contain    87 grid points.
 
  Reading configuration options for species S                   .
  | Found nuclear charge :  16.0000
  | Found atomic mass :    32.0650000000000      amu
  | Found l_max for Hartree potential  :   6
  | Found cutoff potl. onset [A], width [A], scale factor :    4.00000    2.00000    1.00000
  | Threshold for basis-dependent cutoff potential is   0.100000E-03
  | Found data for basic radial integration grid :    44 points, outermost radius =    7.000 A
  | Found multiplier for basic radial grid :   2
  | Found angular grid specification: user-specified.
  | Specified grid contains     5 separate shells.
  | Check grid settings after all constraints further below.
  | Found free-atom valence shell :  3 s   2.000
  | Found free-atom valence shell :  3 p   4.000
  | Found free-ion valence shell :  3 s   1.000
  | Found free-ion valence shell :  3 p   3.000
  | Found ionic basis function :  3 d , default cutoff radius.
  | Found hydrogenic basis function :  2 p   1.800
  | Found hydrogenic basis function :  4 f   7.000
  | Found ionic basis function :  3 s , default cutoff radius.
  | Found hydrogenic basis function :  4 d   6.200
  | Found hydrogenic basis function :  5 g  10.800
  Species S                   : Missing cutoff potential type.
  Defaulting to exp(1/x)/(1-x)^2 type cutoff potential.
  Species S : No 'logarithmic' tag. Using default grid for free atom:
  | Default logarithmic grid data [bohr] : 0.1000E-03 0.1000E+03 0.1012E+01
  | Will include ionic basis functions of  2.0-fold positive S                    ion.
  Species S : On-site basis accuracy parameter (for Gram-Schmidt orthonormalisation) not specified.
  Using default value basis_acc =  0.1000000E-03.
  Species S                   : Using default innermost maximum threshold i_radial=  2 for radial functions.
  Species S                   : Default cutoff onset for free atom density etc. : 0.40000000E+01 AA.
  Species S                   : Basic radial grid will be enhanced according to radial_multiplier =   2, to contain    89 grid points.
 
  Reading configuration options for species Cl                  .
  | Found nuclear charge :  17.0000
  | Found atomic mass :    35.4530000000000      amu
  | Found l_max for Hartree potential  :   6
  | Found cutoff potl. onset [A], width [A], scale factor :    4.00000    2.00000    1.00000
  | Threshold for basis-dependent cutoff potential is   0.100000E-03
  | Found data for basic radial integration grid :    45 points, outermost radius =    7.000 A
  | Found multiplier for basic radial grid :   2
  | Found angular grid specification: user-specified.
  | Specified grid contains     5 separate shells.
  | Check grid settings after all constraints further below.
  | Found free-atom valence shell :  3 s   2.000
  | Found free-atom valence shell :  3 p   5.000
  | Found free-ion valence shell :  3 s   1.000
  | Found free-ion valence shell :  3 p   4.000
  | Found ionic basis function :  3 d , default cutoff radius.
  | Found hydrogenic basis function :  2 p   1.900
  | Found hydrogenic basis function :  4 f   7.400
  | Found ionic basis function :  3 s , default cutoff radius.
  | Found hydrogenic basis function :  5 g  10.400
  | Found hydrogenic basis function :  3 d   3.300
  Species Cl                  : Missing cutoff potential type.
  Defaulting to exp(1/x)/(1-x)^2 type cutoff potential.
  Species Cl: No 'logarithmic' tag. Using default grid for free atom:
  | Default logarithmic grid data [bohr] : 0.1000E-03 0.1000E+03 0.1012E+01
  | Will include ionic basis functions of  2.0-fold positive Cl                   ion.
  Species Cl: On-site basis accuracy parameter (for Gram-Schmidt orthonormalisation) not specified.
  Using default value basis_acc =  0.1000000E-03.
  Species Cl                  : Using default innermost maximum threshold i_radial=  2 for radial functions.
  Species Cl                  : Default cutoff onset for free atom density etc. : 0.40000000E+01 AA.
  Species Cl                  : Basic radial grid will be enhanced according to radial_multiplier =   2, to contain    91 grid points.
 
  Finished reading input file 'control.in'. Consistency checks are next.
 
  MPI_IN_PLACE appears to work with this MPI implementation.
  | Keeping use_mpi_in_place .true. (see manual).
  Target number of points in a grid batch is not set. Defaulting to  100
  Method for grid partitioning is not set. Defaulting to parallel hash+maxmin partitioning.
  Batch size limit is not set. Defaulting to    200
  By default, will store active basis functions for each batch.
  If in need of memory, prune_basis_once .false. can be used to disable this option.
  communication_type for Hartree potential was not specified.
  Defaulting to calc_hartree .
  Defaulting to Pulay charge density mixer.
  Pulay mixer: Number of relevant iterations not set.
  Defaulting to    8 iterations.
  Pulay mixer: Number of initial linear mixing iterations not set.
  Defaulting to    0 iterations.
  Work space size for distributed Hartree potential not set.
  Defaulting to   0.200000E+03 MB.
  Mixing parameter for charge density mixing has not been set.
  Using default: charge_mix_param =     0.0500.
  The mixing parameter will be adjusted in iteration number     2 of the first full s.c.f. cycle only.
  Algorithm-dependent basis array size parameters:
  | n_max_pulay                         :        8
  Maximum number of self-consistency iterations not provided.
  Presetting  1000 iterations.
  Presetting      1001 iterations before the initial mixing cycle
  is restarted anyway using the sc_init_iter criterion / keyword.
  Presetting a factor      1.000 between actual scf density residual
  and density convergence criterion sc_accuracy_rho below which sc_init_iter
  takes no effect.
  Geometry relaxation not requested: no relaxation will be performed.
  Handling of forces: Unphysical translation and rotation will be removed from forces.
  No accuracy limit for integral partition fn. given. Defaulting to  0.1000E-14.
  No threshold value for u(r) in integrations given. Defaulting to  0.1000E-05.
  No occupation type (smearing scheme) given. Defaulting to Gaussian broadening, width =  0.1000E-01 eV.
  The width will be adjusted in iteration number     2 of the first full s.c.f. cycle only.
  S.C.F. convergence parameters will be adjusted in iteration number     2 of the first full s.c.f. cycle only.
  No accuracy for occupation numbers given. Defaulting to  0.1000E-12.
  No threshold value for occupation numbers given. Defaulting to  0.0000E+00.
  No accuracy for fermi level given. Defaulting to  0.1000E-19.
  Maximum # of iterations to find E_F not set. Defaulting to  200.
  Preferred method for the eigenvalue solver ('KS_method') not specified in 'control.in'.
  Calling BLACS routine to test compilation state
  Since ScaLAPACK support is enabled, defaulting to 'elsi'.
  Will not use alltoall communication since running on < 1024 CPUs.
  Threshold for basis singularities not set.
  Default threshold for basis singularities:  0.1000E-04
  partition_type (choice of integration weights) for integrals was not specified.
  | Using a version of the partition function of Stratmann and coworkers ('stratmann_smoother').
  | At each grid point, the set of atoms used to build the partition table is smoothly restricted to
  | only those atoms whose free-atom density would be non-zero at that grid point.
  Partitioning for Hartree potential was not defined. Using partition_type for integrals.
  | Adjusted default value of keyword multip_moments_threshold to:       0.10000000E-11
  | This value may affect high angular momentum components of the Hartree potential in periodic systems.
  Spin handling was not defined in control.in. Defaulting to unpolarized case.
  Angular momentum expansion for Kerker preconditioner not set explicitly.
  | Using default value of   0
  No explicit requirement for turning off preconditioner.
  | By default, it will be turned off when the charge convergence reaches
  | sc_accuracy_rho  =   0.100000E-05
  | sc_accuracy_eev  =   0.100000E-02
  | sc_accuracy_etot =   0.100000E-05
  No special mixing parameter while Kerker preconditioner is on.
  Using default: charge_mix_param =     0.0500.
  No q(lm)/r^(l+1) cutoff set for long-range Hartree potential.
  | Using default value of  0.100000E-09 .
  | Verify using the multipole_threshold keyword.
  Defaulting to new monopole extrapolation.
  Density update method: automatic selection selected.
  Using density matrix based charge density update.
  Using density matrix based charge density update.
  Using packed matrix style: index .
  Defaulting to use time-reversal symmetry for k-point grid.
------------------------------------------------------------


------------------------------------------------------------
          Reading geometry description geometry.in.
------------------------------------------------------------
 * Warning! You did not set the 'relativistic' flag in input file 'control.in'.
 * Since you are not attempting to treat any elements beyond Ca(Z=20), FHI-aims
 * will default to 'relativistic none'.
 * You must ensure that this is really what you want!!
 * For example, DO NOT compute total-energy differences between results from
 * different settings of the 'relativistic' flag.
  Input structure read successfully.
  The structure contains      104 atoms,  and a total of       1344.000 electrons.

  Input geometry:
  | Unit cell:
  |       18.81043234        0.00000000        0.00000000
  |        0.00000000       15.61540213        0.00000000
  |        0.00000000        0.00000000        7.21921532
  | Atomic structure:
  |       Atom                x [A]            y [A]            z [A]
  |    1: Species Li            2.59624799        2.31106861        4.47412650
  |    2: Species Li            1.67938352        7.83585534        4.06097471
  |    3: Species Li            8.61124048        3.53183654        2.72067861
  |    4: Species Li            6.56975631        1.34058926        6.08425801
  |    5: Species Li            7.73193052        0.89070083        2.94855064
  |    6: Species Li            6.42384532        5.70806988        3.32357430
  |    7: Species Li           12.03539919        2.30502269        2.48819787
  |    8: Species Li           11.47560739        8.13062960        4.20450861
  |    9: Species Li           18.46202842        4.42135944        4.08575648
  |   10: Species Li           13.37924864        2.79310429        6.05242106
  |   11: Species Li           17.11640637        0.99663507        4.40300414
  |   12: Species Li           15.26040220        6.94863650        5.13074650
  |   13: Species Li            3.31061813       10.61122767        4.41697809
  |   14: Species Li            1.30299150       15.55478607        4.12530137
  |   15: Species Li            8.75540970       11.85946181        3.88154357
  |   16: Species Li            6.31279770        8.40566823        4.54055000
  |   17: Species Li            7.95240339        8.74455263        2.12942660
  |   18: Species Li            6.27454441       13.82929565        4.40742632
  |   19: Species Li           11.95217556       10.58291889        2.50537303
  |   20: Species Li           10.88807626       15.52233173        3.31234759
  |   21: Species Li            0.15844407       12.24942765        4.23834171
  |   22: Species Li           15.53448137        9.92278317        6.02692414
  |   23: Species Li           17.54893871        8.43279589        3.10654000
  |   24: Species Li           15.80890363       14.34444650        5.00818407
  |   25: Species P             8.72039665        6.85342724        4.29373838
  |   26: Species P             4.48158863        0.61657392        3.23720560
  |   27: Species P            18.29653081        7.60166362        6.07338565
  |   28: Species P            14.21970772        1.09887836        2.79322354
  |   29: Species P             8.84400326       14.93927239        5.04581241
  |   30: Species P             4.23419432        8.12062869        2.62291603
  |   31: Species P            18.30520770       15.26753134        6.19428928
  |   32: Species P            14.11161387        8.51759284        3.15209594
  |   33: Species S             1.14731537        0.70116152        6.42408302
  |   34: Species S             2.78154272        0.39612299        2.39524022
  |   35: Species S             5.22732572        2.48694066        2.19607600
  |   36: Species S             8.59070702        5.88576318        2.51451882
  |   37: Species S             7.45167584       14.73048085        6.33201930
  |   38: Species S             5.92978996        7.33951867        2.14350275
  |   39: Species S            10.35191352        6.18190193        5.24218441
  |   40: Species S             4.35875227        1.17893965        5.13936925
  |   41: Species S             0.35598487        2.52087373        2.16534385
  |   42: Species S             1.21112098        4.36451479        2.26890945
  |   43: Species S             6.84974583        2.09677843        1.25812840
  |   44: Species S             7.32504705        2.89393598        4.54297431
  |   45: Species S            10.63909827        4.43649624        4.21728676
  |   46: Species S             5.75877946        3.67973023        3.94089511
  |   47: Species S             2.95903088        4.30095616        3.21058774
  |   48: Species S             2.84234817        5.50117242        4.91683594
  |   49: Species S             0.37103221        2.10499835        4.03681258
  |   50: Species S             2.14959511        4.44464449        6.32375240
  |   51: Species S             9.42627322        1.14926593        4.86702026
  |   52: Species S            13.36349706        0.99139040        1.08571855
  |   53: Species S            15.15096405        3.02047221        2.85301808
  |   54: Species S            18.19255622        6.67045845        4.23613127
  |   55: Species S            16.68427204        0.51358440        6.64595926
  |   56: Species S            15.37008141        7.19494706        2.77745632
  |   57: Species S            18.39876532        6.12736228        0.17197139
  |   58: Species S            12.83962816        1.21531199        4.22043010
  |   59: Species S             9.77946686        1.61084395        0.35223469
  |   60: Species S             9.61731825        3.47627143        0.10635336
  |   61: Species S            16.38380569        3.19107668        4.32230376
  |   62: Species S            15.48555268        3.83030077        6.15286743
  |   63: Species S             0.14966484        4.49866246        6.37564514
  |   64: Species S            14.15091940        5.01270479        5.77274752
  |   65: Species S            11.54516373        4.15811295        7.21282797
  |   66: Species S            11.95158470        5.49573451        1.52142961
  |   67: Species S             9.87908115        1.59629853        2.31610225
  |   68: Species S            12.32559882        4.68790963        3.17279439
  |   69: Species S             1.02862124        8.78899410        6.28620712
  |   70: Species S             2.65032322        7.32702567        1.79990649
  |   71: Species S             4.46364232       10.02006056        1.96227640
  |   72: Species S             8.50575508       13.90866074        3.31220495
  |   73: Species S             7.18403397        6.62759506        5.43073057
  |   74: Species S             5.81076284       15.03013877        2.65129875
  |   75: Species S            10.68179091       14.44546923        5.69102905
  |   76: Species S             4.04443614        8.47545963        4.57265890
  |   77: Species S             1.22039476       10.55751405        1.93224800
  |   78: Species S             1.56191976       12.51524162        2.31105721
  |   79: Species S             6.33524951       10.63919392        2.20613015
  |   80: Species S             6.66690511       10.77670300        4.22789535
  |   81: Species S            10.57196931       12.46627949        5.30873743
  |   82: Species S             5.35615988       11.87571364        5.15790566
  |   83: Species S             3.27018105       12.70832581        3.38739320
  |   84: Species S             2.88164641       13.86704223        5.05901139
  |   85: Species S             0.85297351        9.97670992        3.74089526
  |   86: Species S             2.43461260       12.80412610        6.55138475
  |   87: Species S             9.24360909        8.75089476        4.27691585
  |   88: Species S            12.46333354        8.41099492        2.15067217
  |   89: Species S            14.82608044       10.29227995        2.44631410
  |   90: Species S            18.12490591       14.32969317        4.35249352
  |   91: Species S            16.62812850        8.23157694        6.81778917
  |   92: Species S            15.52978920       15.44439627        2.96872068
  |   93: Species S            18.30408426       13.80894572        0.28108452
  |   94: Species S            13.62943303        8.72818352        5.05895029
  |   95: Species S             9.93851651       11.68604624        0.79296236
  |   96: Species S            11.01296215       13.31939422        1.39851208
  |   97: Species S            16.71621809       10.51473955        2.65341108
  |   98: Species S            16.95316459       11.12357975        4.74560458
  |   99: Species S             0.46290473       12.37134666        6.54271595
  |  100: Species S            15.44148770       12.07354373        5.43594622
  |  101: Species S            12.85451195       12.70801587        1.65593821
  |  102: Species S            13.18058514       13.34717433        3.56314873
  |  103: Species S             9.69462424       10.50995736        2.24566148
  |  104: Species S            12.45575542       12.02599820        4.70850637

  Lattice parameters for 3D lattice (in Angstroms) :    18.810432   15.615402    7.219215
  Angle(s) between unit vectors (in degrees)      :    90.000000   90.000000   90.000000

  |

  | The smallest distance between any two atoms is         1.82313368 AA.
  |
  | The first atom of this pair is atom number                     62 .
  | The second atom of this pair is atom number                    64 .
  | Wigner-Seitz cell of the first atom image           0     0     0 .
  | (The Wigner-Seitz cell of the second atom is 0 0 0  by definition.)

  Symmetry information by spglib:
  | Precision set to  0.1E-04
  | Number of Operations  : 1
  | Space group           : 1
  | International         : P1  s
  | Schoenflies           : C1^1

  Quantities derived from the lattice vectors:
  | Reciprocal lattice vector 1:  0.334027  0.000000  0.000000
  | Reciprocal lattice vector 2:  0.000000  0.402371  0.000000
  | Reciprocal lattice vector 3:  0.000000  0.000000  0.870342
  | Unit cell volume                               :   0.212052E+04  A^3

  Range separation radius for Ewald summation (hartree_convergence_parameter):      3.91489813 bohr.

  Fractional coordinates:
                         L1                L2                L3
       atom_frac         0.13802171        0.14799930        0.61975247  Li
       atom_frac         0.08927937        0.50180298        0.56252301  Li
       atom_frac         0.45779067        0.22617647        0.37686625  Li
       atom_frac         0.34926131        0.08585045        0.84278661  Li
       atom_frac         0.41104481        0.05703989        0.40843090  Li
       atom_frac         0.34150440        0.36554101        0.46037889  Li
       atom_frac         0.63982576        0.14761212        0.34466320  Li
       atom_frac         0.61006612        0.52068013        0.58240521  Li
       atom_frac         0.98147815        0.28314093        0.56595576  Li
       atom_frac         0.71126747        0.17886855        0.83837658  Li
       atom_frac         0.90994221        0.06382385        0.60990065  Li
       atom_frac         0.81127334        0.44498608        0.71070695  Li
       atom_frac         0.17599905        0.67953599        0.61183631  Li
       atom_frac         0.06926962        0.99611819        0.57143348  Li
       atom_frac         0.46545500        0.75947207        0.53766835  Li
       atom_frac         0.33560088        0.53829342        0.62895340  Li
       atom_frac         0.42276558        0.55999535        0.29496649  Li
       atom_frac         0.33356726        0.88561893        0.61051321  Li
       atom_frac         0.63540143        0.67772311        0.34704229  Li
       atom_frac         0.57883179        0.99403983        0.45882377  Li
       atom_frac         0.00842320        0.78444523        0.58709174  Li
       atom_frac         0.82584393        0.63544846        0.83484477  Li
       atom_frac         0.93293649        0.54003066        0.43031546  Li
       atom_frac         0.84043276        0.91860884        0.69372970  Li
       atom_frac         0.46359363        0.43888894        0.59476525  P
       atom_frac         0.23825017        0.03948499        0.44841516  P
       atom_frac         0.97267997        0.48680550        0.84128058  P
       atom_frac         0.75594795        0.07037144        0.38691512  P
       atom_frac         0.47016481        0.95670110        0.69894195  P
       atom_frac         0.22509819        0.52003968        0.36332425  P
       atom_frac         0.97314125        0.97772259        0.85802805  P
       atom_frac         0.75020146        0.54546100        0.43662584  P
       atom_frac         0.06099357        0.04490192        0.88985890  S
       atom_frac         0.14787234        0.02536745        0.33178678  S
       atom_frac         0.27789503        0.15926203        0.30419871  S
       atom_frac         0.45669907        0.37692037        0.34830916  S
       atom_frac         0.39614591        0.94333023        0.87710631  S
       atom_frac         0.31523943        0.47001791        0.29691631  S
       atom_frac         0.55032831        0.39588490        0.72614324  S
       atom_frac         0.23171994        0.07549851        0.71190137  S
       atom_frac         0.01892486        0.16143508        0.29994172  S
       atom_frac         0.06438560        0.27950063        0.31428754  S
       atom_frac         0.36414611        0.13427630        0.17427495  S
       atom_frac         0.38941407        0.18532574        0.62928921  S
       atom_frac         0.56559563        0.28411028        0.58417523  S
       atom_frac         0.30614817        0.23564748        0.54588968  S
       atom_frac         0.15730797        0.27543038        0.44472808  S
       atom_frac         0.15110488        0.35229144        0.68107623  S
       atom_frac         0.01972481        0.13480270        0.55917609  S
       atom_frac         0.11427675        0.28463209        0.87596118  S
       atom_frac         0.50111943        0.07359823        0.67417580  S
       atom_frac         0.71043009        0.06348798        0.15039288  S
       atom_frac         0.80545539        0.19342904        0.39519781  S
       atom_frac         0.96715248        0.42717174        0.58678555  S
       atom_frac         0.88696909        0.03288960        0.92059302  S
       atom_frac         0.81710410        0.46075964        0.38473105  S
       atom_frac         0.97811496        0.39239222        0.02382134  S
       atom_frac         0.68258017        0.07782777        0.58461064  S
       atom_frac         0.51989591        0.10315738        0.04879127  S
       atom_frac         0.51127577        0.22261812        0.01473198  S
       atom_frac         0.87099570        0.20435444        0.59872210  S
       atom_frac         0.82324278        0.24528992        0.85229033  S
       atom_frac         0.00795648        0.28809136        0.88314933  S
       atom_frac         0.75229102        0.32101029        0.79963642  S
       atom_frac         0.61376387        0.26628280        0.99911523  S
       atom_frac         0.63537002        0.35194319        0.21074723  S
       atom_frac         0.52519161        0.10222590        0.32082465  S
       atom_frac         0.65525335        0.30021062        0.43949297  S
       atom_frac         0.05468355        0.56284136        0.87076044  S
       atom_frac         0.14089645        0.46921787        0.24932162  S
       atom_frac         0.23729610        0.64167804        0.27181298  S
       atom_frac         0.45218286        0.89070141        0.45880401  S
       atom_frac         0.38191754        0.42442679        0.75226051  S
       atom_frac         0.30891171        0.96252012        0.36725581  S
       atom_frac         0.56786525        0.92507827        0.78831685  S
       atom_frac         0.21501027        0.54276282        0.63340110  S
       atom_frac         0.06487861        0.67609620        0.26765347  S
       atom_frac         0.08303476        0.80146778        0.32012582  S
       atom_frac         0.33679447        0.68132693        0.30559140  S
       atom_frac         0.35442594        0.69013292        0.58564472  S
       atom_frac         0.56202692        0.79833227        0.73536211  S
       atom_frac         0.28474411        0.76051283        0.71446902  S
       atom_frac         0.17384933        0.81383276        0.46921903  S
       atom_frac         0.15319405        0.88803619        0.70077026  S
       atom_frac         0.04534577        0.63890189        0.51818585  S
       atom_frac         0.12942885        0.81996775        0.90749264  S
       atom_frac         0.49140865        0.56040150        0.59243500  S
       atom_frac         0.66257560        0.53863454        0.29790941  S
       atom_frac         0.78818393        0.65911078        0.33886150  S
       atom_frac         0.96355605        0.91766405        0.60290396  S
       atom_frac         0.88398439        0.52714473        0.94439477  S
       atom_frac         0.82559448        0.98904890        0.41122484  S
       atom_frac         0.97308153        0.88431573        0.03893561  S
       atom_frac         0.72456777        0.55894709        0.70076180  S
       atom_frac         0.52835131        0.74836665        0.10984052  S
       atom_frac         0.58547097        0.85296518        0.19372079  S
       atom_frac         0.88866740        0.67335695        0.36754841  S
       atom_frac         0.90126395        0.71234667        0.65735739  S
       atom_frac         0.02460894        0.79225284        0.90629184  S
       atom_frac         0.82090020        0.77318174        0.75298297  S
       atom_frac         0.68337142        0.81381291        0.22937925  S
       atom_frac         0.70070612        0.85474420        0.49356455  S
       atom_frac         0.51538551        0.67305070        0.31106725  S
       atom_frac         0.66217273        0.77013695        0.65221858  S

  Number of empty states per atom not set in control.in - providing a guess from actual geometry.
  | Total number of empty states used during s.c.f. cycle:      276
  If you use a very high smearing, use empty_states (per atom!) in control.in to increase this value.

  Structure-dependent array size parameters: 
  | Maximum number of distinct radial functions  :       43
  | Maximum number of basis functions            :     3840
  | Number of Kohn-Sham states (occupied + empty):      948
------------------------------------------------------------

------------------------------------------------------------
          Preparing all fixed parts of the calculation.
------------------------------------------------------------
  Determining machine precision:
    2.225073858507201E-308
  Setting up grids for atomic and cluster calculations.

  Creating wave function, potential, and density for free atoms.

  Species: Li

  List of occupied orbitals and eigenvalues:
    n    l              occ      energy [Ha]    energy [eV]
    1    0           2.0000        -1.901473       -51.7417
    2    0           1.0000        -0.103132        -2.8064


  Species: P

  List of occupied orbitals and eigenvalues:
    n    l              occ      energy [Ha]    energy [eV]
    1    0           2.0000       -76.356288     -2077.7603
    2    0           2.0000        -6.358286      -173.0178
    3    0           2.0000        -0.509419       -13.8620
    2    1           6.0000        -4.573976      -124.4642
    3    1           3.0000        -0.201560        -5.4847


  Species: S

  List of occupied orbitals and eigenvalues:
    n    l              occ      energy [Ha]    energy [eV]
    1    0           2.0000       -88.108280     -2397.5483
    2    0           2.0000        -7.732485      -210.4116
    3    0           2.0000        -0.629532       -17.1304
    2    1           6.0000        -5.750324      -156.4743
    3    1           4.0000        -0.257562        -7.0086


  Species: Cl

  List of occupied orbitals and eigenvalues:
    n    l              occ      energy [Ha]    energy [eV]
    1    0           2.0000      -100.710795     -2740.4802
    2    0           2.0000        -9.222997      -250.9705
    3    0           2.0000        -0.754245       -20.5241
    2    1           6.0000        -7.039872      -191.5647
    3    1           5.0000        -0.316221        -8.6048

  Creating fixed part of basis set: Ionic, confined, hydrogenic.
 
  Li                   hydrogenic:
 
  List of hydrogenic basis orbitals: 
    n    l      effective z      eigenvalue [eV]  inner max. [A]     outer max. [A]     outer radius [A]   
    2    1         1.600000        -8.7048           1.319365           1.319365           6.386418
    2    0         2.000000       -13.6052           0.203259           1.385485           6.232164
    3    2         2.600000       -10.2084           1.835332           1.835332           6.386418
    3    1         4.600000       -31.9883           0.343834           1.385485           5.381805
    2    1         1.800000       -11.0199           1.181903           1.181903           6.386418
    3    0         6.200000       -58.1113           0.062858           1.111823           4.371906
    4    2         4.700000       -18.7772           0.761113           2.401695           6.386418
    4    3         4.100000       -14.2833           2.073992           2.073992           6.386418
 
 
  P                    ion:

  List of free ionic orbitals and eigenvalues:
    n    l      energy [Ha]    energy [eV]
    1    0       -77.297133     -2103.3620
    2    0        -7.273914      -197.9333
    3    0        -1.267536       -34.4914
    2    1        -5.491316      -149.4263
    3    1        -0.913470       -24.8568


  List of ionic basis orbitals and eigenvalues:
    n    l      energy [Ha]    energy [eV]    outer radius [A]
    3    2        -0.458060       -12.4644       5.404780
    3    1        -0.913461       -24.8565       4.724723
    3    0        -1.267529       -34.4912       4.232463

 
  P                    hydrogenic:
 
  List of hydrogenic basis orbitals: 
    n    l      effective z      eigenvalue [eV]  inner max. [A]     outer max. [A]     outer radius [A]   
    4    3         6.200000       -32.6870           1.357793           1.357793           5.339109
    5    4         8.600000       -40.2502           1.534356           1.534356           5.404780
    4    2         6.200000       -32.6848           0.577014           1.820771           5.404780
 
 
  S                    ion:

  List of free ionic orbitals and eigenvalues:
    n    l      energy [Ha]    energy [eV]
    1    0       -89.127201     -2425.2745
    2    0        -8.724378      -237.4024
    3    0        -1.464668       -39.8556
    2    1        -6.744348      -183.5230
    3    1        -1.048520       -28.5317


  List of ionic basis orbitals and eigenvalues:
    n    l      energy [Ha]    energy [eV]    outer radius [A]
    3    2        -0.496514       -13.5108       5.386362
    3    0        -1.464662       -39.8555       3.967934

 
  S                    hydrogenic:
 
  List of hydrogenic basis orbitals: 
    n    l      effective z      eigenvalue [eV]  inner max. [A]     outer max. [A]     outer radius [A]   
    2    1         1.800000       -11.0118           1.168531           1.168531           5.452614
    4    3         7.000000       -41.6672           1.212182           1.212182           5.066981
    4    2         6.200000       -32.6848           0.582121           1.814567           5.386362
    5    4        10.800000       -63.4785           1.227092           1.227092           4.766538
 
 
  Cl                   ion:

  List of free ionic orbitals and eigenvalues:
    n    l      energy [Ha]    energy [eV]
    1    0      -101.807232     -2770.3157
    2    0       -10.290876      -280.0290
    3    0        -1.664625       -45.2967
    2    1        -8.110237      -220.6908
    3    1        -1.183915       -32.2160


  List of ionic basis orbitals and eigenvalues:
    n    l      energy [Ha]    energy [eV]    outer radius [A]
    3    2        -0.529392       -14.4055       5.389057
    3    0        -1.664620       -45.2966       3.780461

 
  Cl                   hydrogenic:
 
  List of hydrogenic basis orbitals: 
    n    l      effective z      eigenvalue [eV]  inner max. [A]     outer max. [A]     outer radius [A]   
    2    1         1.900000       -12.2741           1.113321           1.113321           5.389057
    4    3         7.400000       -46.5653           1.140877           1.140877           4.886961
    5    4        10.400000       -58.8635           1.273568           1.273568           4.886961
    3    2         3.300000       -16.4532           1.439178           1.439178           5.455343
 

  Adding cutoff potential to free-atom effective potential.
  Creating atomic-like basis functions for current effective potential.

  Species Li                  :

  List of atomic basis orbitals and eigenvalues:
    n    l      energy [Ha]    energy [eV]    outer radius [A]
    1    0        -1.901473       -51.7417       4.318785
    2    0        -0.103132        -2.8064       6.464971


  Species P                   :

  List of atomic basis orbitals and eigenvalues:
    n    l      energy [Ha]    energy [eV]    outer radius [A]
    1    0       -76.356288     -2077.7603       0.736837
    2    0        -6.358286      -173.0178       2.532824
    3    0        -0.509419       -13.8620       5.274236
    2    1        -4.573976      -124.4642       2.862183
    3    1        -0.201560        -5.4847       5.404780


  Species S                   :

  List of atomic basis orbitals and eigenvalues:
    n    l      energy [Ha]    energy [eV]    outer radius [A]
    1    0       -88.108280     -2397.5483       0.682391
    2    0        -7.732485      -210.4116       2.317169
    3    0        -0.629532       -17.1304       5.256262
    2    1        -5.750324      -156.4743       2.555240
    3    1        -0.257562        -7.0086       5.386362


  Species Cl                  :

  List of atomic basis orbitals and eigenvalues:
    n    l      energy [Ha]    energy [eV]    outer radius [A]
    1    0      -100.710795     -2740.4802       0.642251
    2    0        -9.222997      -250.9705       2.128190
    3    0        -0.754245       -20.5241       5.194994
    2    1        -7.039872      -191.5647       2.346844
    3    1        -0.316221        -8.6048       5.323577

  Assembling full basis from fixed parts.
  | Species Li :   atomic orbital   1 s accepted.
  | Species Li :    hydro orbital   3 s accepted.
  | Species Li :    hydro orbital   2 s accepted.
  | Species Li :   atomic orbital   2 s accepted.
  | Species Li :    hydro orbital   3 p accepted.
  | Species Li :    hydro orbital   2 p accepted.
  | Species Li :    hydro orbital   2 p accepted.
  | Species Li :    hydro orbital   3 d accepted.
  | Species Li :    hydro orbital   4 d accepted.
  | Species Li :    hydro orbital   4 f accepted.
  | Species P :   atomic orbital   1 s accepted.
  | Species P :   atomic orbital   2 s accepted.
  | Species P :    ionic orbital   3 s accepted.
  | Species P :   atomic orbital   3 s accepted.
  | Species P :   atomic orbital   2 p accepted.
  | Species P :    ionic orbital   3 p accepted.
  | Species P :   atomic orbital   3 p accepted.
  | Species P :    ionic orbital   3 d accepted.
  | Species P :    hydro orbital   4 d accepted.
  | Species P :    hydro orbital   4 f accepted.
  | Species P :    hydro orbital   5 g accepted.
  | Species S :   atomic orbital   1 s accepted.
  | Species S :   atomic orbital   2 s accepted.
  | Species S :    ionic orbital   3 s accepted.
  | Species S :   atomic orbital   3 s accepted.
  | Species S :   atomic orbital   2 p accepted.
  | Species S :   atomic orbital   3 p accepted.
  | Species S :    hydro orbital   2 p accepted.
  | Species S :    ionic orbital   3 d accepted.
  | Species S :    hydro orbital   4 d accepted.
  | Species S :    hydro orbital   4 f accepted.
  | Species S :    hydro orbital   5 g accepted.
  | Species Cl :   atomic orbital   1 s accepted.
  | Species Cl :   atomic orbital   2 s accepted.
  | Species Cl :    ionic orbital   3 s accepted.
  | Species Cl :   atomic orbital   3 s accepted.
  | Species Cl :   atomic orbital   2 p accepted.
  | Species Cl :   atomic orbital   3 p accepted.
  | Species Cl :    hydro orbital   2 p accepted.
  | Species Cl :    ionic orbital   3 d accepted.
  | Species Cl :    hydro orbital   3 d accepted.
  | Species Cl :    hydro orbital   4 f accepted.
  | Species Cl :    hydro orbital   5 g accepted.
 
  Basis size parameters after reduction:
  | Total number of radial functions:       43
  | Total number of basis functions :     3840
 
  Per-task memory consumption for arrays in subroutine allocate_ext:
  |          11.342760MB.
  Testing on-site integration grid accuracy.
  |  Species  Function  <phi|h_atom|phi> (log., in eV)  <phi|h_atom|phi> (rad., in eV)
           1        1                -51.7417001117                -51.7417000312
           1        2                 33.5927188637                 33.5926505054
           1        3                 69.1469416012                 69.1473382425
           1        4                 48.8336153902                 48.8810182289 ***
           1        5                 17.1749490570                 17.1749098864
           1        6                 32.1201183828                 32.1217831653
           1        7                  6.0166019876                  6.0249480535
           1        8                  4.9175332206                  4.9194842525
           1        9                 28.8010599263                 28.8011051086
           1       10                  9.9331480983                  9.9353515081
           2       11              -2077.7602992527              -2077.7602630746
           2       12               -173.0177635265               -173.0177629291
           2       13                -13.5620523038                -13.5620521963
           2       14                  6.3015351439                  6.3015396353
           2       15               -124.4642131574               -124.4642129967
           2       16                 -4.8468074573                 -4.8468065719
           2       17                  5.8113348591                  5.8108493787
           2       18                  5.1218113540                  5.1217878152
           2       19                 22.1386653152                 22.1386624883
           2       20                 19.3047268689                 19.3047231214
           2       21                 30.3235883931                 30.3235836780
           3       22              -2397.5482725833              -2397.5482291499
           3       23               -210.4116306505               -210.4116300246
           3       24                -16.8591546483                -16.8591544436
           3       25                  7.5848976656                  7.5849001027
           3       26               -156.4742745766               -156.4742744285
           3       27                 -7.0089268331                 -7.0089287934
           3       28                  6.8790437028                  6.8789536772
           3       29                  6.0023049431                  6.0023019693
           3       30                 19.5634804122                 19.5634829634
           3       31                 24.6809503130                 24.6809503093
           3       32                 47.5107032033                 47.5107040524
           4       33              -2740.4801671239              -2740.4801157382
           4       34               -250.9705040601               -250.9705032686
           4       35                -20.2716828479                -20.2716826054
           4       36                  9.0161300765                  9.0161279813
           4       37               -191.5646602865               -191.5646600866
           4       38                 -8.6049187754                 -8.6049181478
           4       39                  7.6458046208                  7.6458222053
           4       40                  6.9765726558                  6.9765744583
           4       41                 16.6546700656                 16.6546956458
           4       42                 28.0343243807                 28.0343233726
           4       43                 45.0370063060                 45.0370052039
 * Note: Onsite integrals marked "***" above are less accurate than
 * onsite_accuracy_threshold =    0.03000 eV. Usually, this is harmless.
 * When in doubt, tighten the "radial" and/or "radial_multiplier" flags to check.

  Preparing densities etc. for the partition functions (integrals / Hartree potential).

  Preparations completed.
  max(cpu_time)          :      0.487 s.
  Wall clock time (cpu1) :      0.534 s.
------------------------------------------------------------

------------------------------------------------------------
          Begin self-consistency loop: Initialization.

          Date     :  20220704, Time     :  045029.896
------------------------------------------------------------

  Initializing index lists of integration centers etc. from given atomic structure:
  Mapping all atomic coordinates to central unit cell.

  Initializing the k-points
          Using symmetry for reducing the k-points
  | k-points reduced from:        2 to        2
  | Number of k-points                             :         2
  The eigenvectors in the calculations are REAL.
  | Number of basis functions in the Hamiltonian integrals :     21010
  | Number of basis functions in a single unit cell        :      3840
  | Number of centers in hartree potential         :      2968
  | Number of centers in hartree multipole         :      2070
  | Number of centers in electron density summation:      1686
  | Number of centers in basis integrals           :      1775
  | Number of centers in integrals                 :       730
  | Number of centers in hamiltonian               :      2039
  | Consuming          1 KiB for k_phase.
  | Number of super-cells (origin) [n_cells]                     :         175
  | Number of super-cells (after PM_index) [n_cells]             :          46
  | Number of super-cells in hamiltonian [n_cells_in_hamiltonian]:          46
  | Size of matrix packed + index [n_hamiltonian_matrix_size] :    17662946
  Using simple linear distribution as default method for k-point parallelism.
  * Using 20 tasks for Scalapack Eigenvalue solver.
  Detailed listing of tasks and assigned k-points:
   Task     0 k-point     1 on node108
   Task     1 k-point     1 on node108
   Task     2 k-point     1 on node108
   Task     3 k-point     1 on node108
   Task     4 k-point     1 on node108
   Task     5 k-point     1 on node108
   Task     6 k-point     1 on node108
   Task     7 k-point     1 on node108
   Task     8 k-point     1 on node108
   Task     9 k-point     1 on node108
   Task    10 k-point     2 on node108
   Task    11 k-point     2 on node108
   Task    12 k-point     2 on node108
   Task    13 k-point     2 on node108
   Task    14 k-point     2 on node108
   Task    15 k-point     2 on node108
   Task    16 k-point     2 on node108
   Task    17 k-point     2 on node108
   Task    18 k-point     2 on node108
   Task    19 k-point     2 on node108
  K-point:     1 Tasks:    10 split into      5 X      2 BLACS grid
  Calculating block size based on n_basis =         3840 max_nprow =            5 max_npcol =            2
  ScaLAPACK block size set to:           16
  Allocating       11.796 MB for ovlp
  Allocating       11.796 MB for ham
  Allocating       11.796 MB for eigenvec
  Required Scalapack workspace - INTEGER:            1 REAL:             1
  Partitioning the integration grid into batches with parallel hashing+maxmin method.
  | Number of batches:    27313
  | Maximal batch size:     135
  | Minimal batch size:      53
  | Average batch size:      85.384
  | Standard deviation of batch sizes:      23.347

  Integration load balanced across    20 MPI tasks.
  Work distribution over tasks is as follows:
  Task     0 has     116577 integration points.
  Task     1 has     116644 integration points.
  Task     2 has     116577 integration points.
  Task     3 has     116602 integration points.
  Task     4 has     116626 integration points.
  Task     5 has     116635 integration points.
  Task     6 has     116627 integration points.
  Task     7 has     116559 integration points.
  Task     8 has     116549 integration points.
  Task     9 has     116612 integration points.
  Task    10 has     116644 integration points.
  Task    11 has     116558 integration points.
  Task    12 has     116611 integration points.
  Task    13 has     116620 integration points.
  Task    14 has     116634 integration points.
  Task    15 has     116655 integration points.
  Task    16 has     116569 integration points.
  Task    17 has     116600 integration points.
  Task    18 has     116616 integration points.
  Task    19 has     116565 integration points.
  Initializing partition tables, free-atom densities, potentials, etc. across the integration grid (initialize_grid_storage).
  | initialize_grid_storage: Actual outermost partition radius vs. multipole_radius_free
  | (-- VB: in principle, multipole_radius_free should be larger, hence this output)
  | Species        1: Confinement radius =              7.000000000000000 AA, multipole_radius_free =              7.042572113910259 AA.
  | Species        1: outer_partition_radius set to              7.042572113910259 AA .
  | Species        2: Confinement radius =              6.000000000000000 AA, multipole_radius_free =              6.033387558927091 AA.
  | Species        2: outer_partition_radius set to              6.033387558927091 AA .
  | Species        3: Confinement radius =              6.000000000000000 AA, multipole_radius_free =              6.012827091137924 AA.
  | Species        3: outer_partition_radius set to              6.012827091137924 AA .
  | Species        4: Confinement radius =              6.000000000000000 AA, multipole_radius_free =              6.015836048499353 AA.
  | Species        4: outer_partition_radius set to              6.015836048499353 AA .
  | Original list of interatomic distances with        1775 x       1775 entries is created.
  | Net number of integration points:  2332080
  | of which are non-zero points    :  1861480
  | Numerical average free-atom electrostatic potential    :    -11.13661041 eV
  Renormalizing the initial density to the exact electron count on the 3D integration grid.
  | Initial density: Formal number of electrons (from input files) :    1344.0000000000
  | Integrated number of electrons on 3D grid     :    1344.0000801159
[...]
  | Total energy evaluation                    :        0.003 s           0.006 s

  Partial memory accounting:
  | Current value for overall tracked memory usage on task 0  :         253.013 MB
  | Peak value for overall tracked memory usage on task 0     :         535.619 MB after allocating temp_ham_ovlp
  | Largest tracked array allocation on task 0 so far         :         141.304 MB  when allocating overlap_matrix
  Note:  These values currently only include a subset of arrays which are explicitly tracked.
  The "true" memory usage will be greater.
------------------------------------------------------------
  |------------------------------------------
  | Final ELSI Output
  |------------------------------------------
  | Number of basis functions :         3840
  | Number of electrons       :       1344.0
  | Number of spins           :            1
  | Number of k-points        :            2
  | Number of states          :          948
  | Solver                    :         ELPA
  | Parallel mode             :   MULTI_PROC
  | Matrix format             :  BLACS_DENSE
  | Matrix sparsity           :        0.138
  |------------------------------------------
  | ELSI Project (c)  elsi-interchange.org
  |------------------------------------------
  Removing unitary transformations (pure translations, rotations) from forces on atoms.
  Atomic forces before filtering:
  | Net force on center of mass :   0.654349E-03 -0.125561E-02  0.333839E-02 eV/A
  Atomic forces after filtering:
  | Net force on center of mass :  -0.274299E-14  0.713624E-15 -0.356812E-14 eV/A

  Energy and forces in a compact form:
  | Total energy uncorrected      :         -0.859124629834329E+06 eV
  | Total energy corrected        :         -0.859124629834329E+06 eV  <-- do not rely on this value for anything but (periodic) metals
  | Electronic free energy        :         -0.859124629834329E+06 eV
  Total atomic forces (unitary forces cleaned) [eV/Ang]:
  |   1         -0.279077050569630E+00          0.407960654348353E-01          0.142214974412659E+00
  |   2          0.915671137887495E-01         -0.279704364716373E+00          0.653365036051835E-01
  |   3          0.508418316789444E-01          0.177558361573207E+00         -0.139357720685340E+00
  |   4         -0.128874069514045E+00         -0.935338923660380E-01          0.270675256783413E+00
  |   5          0.103974451399792E+00         -0.444494345633137E+00          0.261655816285790E+00
  |   6          0.205915123672489E+00         -0.528913276780782E+00          0.569401265782566E+00
  |   7         -0.300938316700686E+00          0.502377343852646E+00         -0.537978562871202E+00
  |   8          0.139913020535152E+00         -0.910120549158028E-01          0.211415208013056E+00
  |   9         -0.197486556894257E+00         -0.951078743992956E-01         -0.132410182502458E+00
  |  10         -0.770192077625519E-01         -0.330456904091124E+00          0.120356703620601E+00
  |  11         -0.706303928281484E-01         -0.664855383792091E-01         -0.430094166379156E+00
  |  12          0.214950477310780E+00          0.405276903935623E-01          0.261396434732093E+00
  |  13         -0.956350301136591E-01          0.433099454832889E-01          0.177940399290326E+00
  |  14          0.452059786680921E-01         -0.589993550905174E-01          0.522094530465221E-01
  |  15          0.763391892058149E-01         -0.684957297603712E+00          0.210671338343986E+00
  |  16         -0.993228618009372E-01          0.502437416660616E+00         -0.122512040709667E+00
  |  17          0.116027622668239E+00         -0.115648841649662E+00         -0.225933995513962E+00
  |  18          0.166483256915150E+00         -0.128530195745705E+00          0.578905713918602E+00
  |  19          0.139017639224766E+00          0.140375379229676E+00          0.617654807781293E-01
  |  20          0.484793524687334E+00         -0.557386366765582E+00          0.159477821140540E+00
  |  21          0.434350552363200E-02         -0.193202313732292E+00         -0.923742877387343E-01
  |  22         -0.610779473405178E+00          0.472542306657192E-01          0.454186792897632E-01
  |  23          0.487112389591344E-01          0.110251530184243E+00         -0.360845971392623E+00
  |  24         -0.634422669546467E-01          0.154984315147575E+00          0.282992535434692E+00
  |  25         -0.432527796237380E+00         -0.352511573749937E+00         -0.155099888443019E+01
  |  26         -0.281260918661794E+00          0.119752845047130E+01          0.957257435339972E+00
  |  27          0.126101510352529E+01          0.957331493671415E+00         -0.207955843188451E+01
  |  28         -0.138822642242501E+01          0.248617068478559E+01          0.640931425923518E+00
  |  29         -0.464699726400977E+00         -0.100964195585091E+01         -0.144377526478678E+01
  |  30         -0.145471137653244E+01         -0.689686540588611E+00          0.251078583369810E+00
  |  31          0.192727870735959E+01          0.546627648723690E+00         -0.191698701110010E+01
  |  32         -0.624531420213444E+00          0.564599221352481E+00          0.887030198933152E+00
  |  33          0.723764739245563E+00          0.939682198396954E-01          0.472885738725524E+00
  |  34         -0.184767513974284E+01          0.532168762634993E-01         -0.128468391394270E+01
  |  35         -0.212510590114148E+01          0.147182167228150E+01         -0.169559186055979E+00
  |  36          0.130476447473231E+00          0.759352511102370E+00         -0.697465499809585E+00
  |  37         -0.190288372161287E+01         -0.664452685809607E+00          0.176351637914840E+01
  |  38          0.182801474474932E+01         -0.367999197213690E+00         -0.140896450661005E+01
  |  39          0.190207933500208E+01         -0.833846148189325E+00          0.119251147008732E+01
  |  40          0.440661505236435E+00         -0.384912819889658E+00          0.128329172161020E+01
  |  41         -0.388275211914075E+00          0.496385964992877E+00         -0.307039225045312E+01
  |  42         -0.113086014891512E+01          0.152780426971260E+01         -0.153185031867782E+01
  |  43          0.135663457936389E+01          0.509680880952110E-01         -0.127820491224579E+01
  |  44          0.360204613735423E+01         -0.156696996930323E+01          0.161468997080650E+01
  |  45         -0.687564136213524E+00         -0.118977397295837E+01          0.118015105624091E+01
  |  46         -0.395717964717298E+01          0.195296669618558E+01         -0.132553708744213E+01
  |  47          0.164080786939393E+01         -0.507236671231855E+00          0.146835807964936E+00
  |  48          0.962569157878729E+00          0.194649189205360E+01         -0.204317903307163E+01
  |  49         -0.274718329286253E-02         -0.109888001406782E+01          0.293652537176669E+01
  |  50          0.750434662615635E+00         -0.219257171985723E+01          0.268854485901560E+01
  |  51          0.823366528763798E+00          0.204272547945175E+01         -0.584559197825377E-02
  |  52         -0.126007219732262E+01          0.282406728465388E+00         -0.252936179036173E+01
  |  53         -0.117410391909974E+01          0.114404353383485E+01         -0.223249877583167E+01
  |  54          0.316718022286886E+00          0.171725701861926E+00          0.757809976144337E-01
  |  55         -0.302602558913823E+01          0.163922068973264E+01          0.797318217744040E+00
  |  56          0.249219234870765E+01         -0.281850293429006E+01         -0.766847564814209E+00
  |  57         -0.190218010792326E+00         -0.200097434655206E+01          0.239177866140742E+01
  |  58         -0.739760000351134E+00         -0.187751716291073E+00          0.193789172442802E+01
  |  59          0.340880778553291E+00         -0.296744469684749E+01         -0.130771752095869E+01
  |  60         -0.143741396134604E+01          0.340054016243532E+01         -0.112034622877323E+01
  |  61          0.120633660230339E+01          0.111670665685579E+00          0.895114929678204E+00
  |  62          0.397885353821940E+01         -0.372242227438445E+01          0.197077694233884E+01
  |  63         -0.110024076902915E+01         -0.928171248368664E+00          0.207915351116106E+00
  |  64         -0.409181916499719E+01          0.386051089463905E+01         -0.106752133879386E+01
  |  65          0.880912878069766E+00         -0.109299762763576E+00         -0.242195399499264E-01
  |  66         -0.605272061513216E+00          0.212343214040694E+01         -0.348409466491403E+01
  |  67          0.216846413462256E+00         -0.320653218806374E+00          0.159466747316540E+01
  |  68          0.194627653023808E+01         -0.145230231103616E+01          0.242380706139149E+01
  |  69          0.414020889710101E+00          0.175591438788341E+00          0.270888541411905E+00
  |  70         -0.600710291211476E+00         -0.373979219267683E-01         -0.334863676467961E+00
  |  71         -0.152382956572674E+01          0.236908849657759E+01         -0.181028049338200E+01
  |  72          0.138182702682072E+00          0.985199498351454E+00         -0.377081898874307E+00
  |  73         -0.170367086583110E+01         -0.119438021800536E+01          0.180213969363366E+01
  |  74          0.171757547643445E+01         -0.157773521057339E+01         -0.121319672327071E+01
  |  75          0.165309682608501E+01          0.664464677258891E-01          0.459592539547881E+00
  |  76         -0.135018845353962E+00         -0.538415032907913E+00          0.178170809669726E+01
  |  77          0.563838251048895E+00          0.423303443284285E+00         -0.270803336121812E+01
  |  78         -0.102848107966042E+01          0.156917628088814E+01         -0.102725720233392E+01
  |  79          0.822844067381092E+00          0.605891067692903E+00         -0.112852950350873E+01
  |  80          0.143924369294561E+01         -0.103468291605419E+01          0.804979257349165E+00
  |  81         -0.771807096107418E+00         -0.114249981281293E+01          0.170413214763708E+00
  |  82         -0.815817759565187E+00          0.540110254642706E+00          0.112957985252507E+01
  |  83          0.114065246465098E+01         -0.437324468362328E+00         -0.401427839963192E+00
  |  84          0.413033844297533E+00          0.219119835035101E+01         -0.236102140975444E+01
  |  85         -0.579749129743169E+00         -0.120001810240325E+01          0.257592481632423E+01
  |  86          0.793675156594562E+00         -0.199248631459678E+01          0.288636717248875E+01
  |  87         -0.486956951994864E-01          0.139871197471720E+01          0.191749405449149E+00
  |  88         -0.192117613901639E+01         -0.300493896945993E-01         -0.175594816718967E+01
  |  89         -0.187220833003072E+01          0.195153922017941E+01         -0.145942861183603E+01
  |  90          0.672184271519587E-01          0.593779902784124E+00         -0.470481896933971E+00
  |  91         -0.196356279530626E+01          0.459157357292372E+00          0.113356161759907E+01
  |  92          0.392920763757928E+01         -0.355186670667641E+01          0.488765511682287E+00
  |  93         -0.866592987558447E+00         -0.190287366356150E+01          0.279395722979353E+01
  |  94         -0.506895075177802E+00          0.116587764743310E+00          0.183934468605478E+01
  |  95          0.395054216365396E+00          0.219802907475653E+01         -0.318405245260791E+01
  |  96         -0.200706236515271E+01          0.138283741552460E+01         -0.469070618408794E+00
  |  97          0.182433533170999E+01          0.574056886626426E+00         -0.317909731889688E+00
  |  98          0.222688134801727E+01         -0.978674138911143E+00         -0.402859151954402E+00
  |  99         -0.271627631658964E+00         -0.142437420835829E+01          0.599750347483887E-02
  | 100         -0.182746983436163E+01          0.124512437971193E+01          0.925930183017261E+00
  | 101          0.206381226245337E+01         -0.659281792180390E+00         -0.111383886450769E+01
  | 102          0.118999817129432E+01          0.233303018058872E+01         -0.112119796346472E+01
  | 103         -0.888480306453586E+00         -0.239295773027274E+01          0.297176969859207E+01
  | 104          0.160314073283271E+00         -0.269078539267981E+01          0.202279182954636E+01

  ------------------------------------ 
  Start decomposition of the XC Energy 
  ------------------------------------ 
  X and C from original XC functional choice 
  Hartree-Fock Energy :          0.000000000 Ha              0.000000000 eV
  X Energy            :      -2021.588420195 Ha         -55010.219802683 eV
  C Energy            :        -52.605556561 Ha          -1431.470026412 eV
  Total XC Energy     :      -2074.193976756 Ha         -56441.689829095 eV
  ------------------------------------ 
  LDA X and C from self-consistent density 
  X Energy LDA        :      -1874.165132612 Ha         -50998.628039992 eV
  C Energy LDA        :       -103.487114880 Ha          -2816.027673797 eV
  ------------------------------------ 
  End decomposition of the XC Energy 
  ------------------------------------ 

------------------------------------------------------------

------------------------------------------------------------------------------
  Final output of selected total energy values:

  The following output summarizes some interesting total energy values
  at the end of a run (AFTER all relaxation, molecular dynamics, etc.).

  | Total energy of the DFT / Hartree-Fock s.c.f. calculation      :        -859124.629834329 eV
  | Final zero-broadening corrected energy (caution - metals only) :        -859124.629834329 eV
  | For reference only, the value of 1 Hartree used in FHI-aims is :             27.211384500 eV

  Before relying on these values, please be sure to understand exactly which
  total energy value is referred to by a given number. Different objects may
  all carry the same name 'total energy'. Definitions:

  Total energy of the DFT / Hartree-Fock s.c.f. calculation:
  | Note that this energy does not include ANY quantities calculated after the
  | s.c.f. cycle, in particular not ANY RPA, MP2, etc. many-body perturbation terms.

  Final zero-broadening corrected energy:
  | For metallic systems only, a broadening of the occupation numbers at the Fermi
  | level can be extrapolated back to zero broadening by an electron-gas inspired
  | formula. For all systems that are not real metals, this value can be
  | meaningless and should be avoided.

------------------------------------------------------------------------------
  Methods described in the following list of references were used in this FHI-aims run.
  If you publish the results, please make sure to cite these reference if they apply.
  FHI-aims is an academic code, and for our developers (often, Ph.D. students
  and postdocs), scientific credit in the community is essential.
  Thank you for helping us!

  For any use of FHI-aims, please cite:

    Volker Blum, Ralf Gehrke, Felix Hanke, Paula Havu, Ville Havu,
    Xinguo Ren, Karsten Reuter, and Matthias Scheffler
    'Ab initio molecular simulations with numeric atom-centered orbitals'
    Computer Physics Communications 180, 2175-2196 (2009)
    http://dx.doi.org/10.1016/j.cpc.2009.06.022


  The provided symmetry information was generated with SPGlib:

    Atsushi Togo, Yusuke Seto, Dimitar Pashov
    SPGlib 1.7.3 obtained from http://spglib.sourceforge.net
    Copyright (C) 2008 Atsushi Togo


  The scalable eigensolver library ELPA was used in your run.
  ELPA is essential especially for large systems on hundreds or thousands of CPUs.
  For ELPA, please cite:

    Andreas Marek, Volker Blum, Rainer Johanni, Ville Havu, Bruno Lang,
    Thomas Auckenthaler, Alexander Heinecke, Hans-Joachim Bungartz, and Hermann Lederer,
    'The ELPA Library - Scalable Parallel Eigenvalue Solutions
    for Electronic Structure Theory and Computational Science'
    The Journal of Physics: Condensed Matter 26, 213201 (2014).
    http://dx.doi.org/10.1088/0953-8984/26/21/213201


  The ELSI infrastructure was used in your run to solve the Kohn-Sham electronic structure.
  Please check out http://elsi-interchange.org to learn more.
  If scalability is important for your project, please acknowledge ELSI by citing:

    V. W-z. Yu, F. Corsetti, A. Garcia, W. P. Huhn, M. Jacquelin, W. Jia,
    B. Lange, L. Lin, J. Lu, W. Mi, A. Seifitokaldani, A. Vazquez-Mayagoitia,
    C. Yang, H. Yang, and V. Blum
    'ELSI: A unified software interface for Kohn-Sham electronic structure solvers'
    Computer Physics Communications 222, 267-285 (2018).
    http://dx.doi.org/10.1016/j.cpc.2017.09.007


  For the real-space grid partitioning and parallelization used in this calculation, please cite:

    Ville Havu, Volker Blum, Paula Havu, and Matthias Scheffler,
    'Efficient O(N) integration for all-electron electronic structure calculation'
    'using numerically tabulated basis functions'
    Journal of Computational Physics 228, 8367-8379 (2009).
    http://dx.doi.org/10.1016/j.jcp.2009.08.008

  Of course, there are many other important community references, e.g., those cited in the
  above references. Our list is limited to references that describe implementations in the
  FHI-aims code. The reason is purely practical (length of this list) - please credit others as well.

------------------------------------------------------------
          Leaving FHI-aims.
          Date     :  20220704, Time     :  055657.431

          Computational steps:
          | Number of self-consistency cycles          :           22
          | Number of SCF (re)initializations          :            1

          Detailed time accounting                     :  max(cpu_time)    wall_clock(cpu1)
          | Total time                                 :     3987.584 s        3988.301 s
          | Preparation time                           :        0.487 s           0.534 s
          | Boundary condition initalization           :        0.916 s           0.917 s
          | Grid partitioning                          :        4.497 s           4.497 s
          | Preloading free-atom quantities on grid    :        0.035 s           0.035 s
          | Free-atom superposition energy             :        1.778 s           1.779 s
          | Total time for integrations                :      864.152 s         864.179 s
          | Total time for solution of K.-S. equations :       57.250 s          57.248 s
          | Total time for density & force components  :     2355.839 s        2355.877 s
          | Total time for mixing & preconditioning    :      258.851 s         259.062 s
          | Total time for Hartree multipole update    :        0.624 s           0.624 s
          | Total time for Hartree multipole sum       :      430.282 s         430.307 s
          | Total time for total energy evaluation     :        0.011 s           0.019 s

          Partial memory accounting:
          | Residual value for overall tracked memory usage across tasks :           0.000 MB (should be 0.000 MB)
          | Peak values for overall tracked memory usage (after allocating temp_ham_ovlp):
          |   Minimum:      535.619 MB (on task  1)
          |   Maximum:      535.619 MB (on task  1)
          |   Average:      535.619 MB
          | Largest tracked array allocation (overlap_matrix):
          |   Minimum:      141.304 MB (on task  1)
          |   Maximum:      141.304 MB (on task  1)
          |   Average:      141.304 MB
          Note:  These values currently only include a subset of arrays which are explicitly tracked.
          The "true" memory usage will be greater.

          Have a nice day.
------------------------------------------------------------
