  MPI-parallelism will be employed.
------------------------------------------------------------
          Invoking FHI-aims ...
          Version 171221_1
          Compiled on 2020/11/22 at 19:48:33 on host core401.

          When using FHI-aims, please cite the following reference:

          Volker Blum, Ralf Gehrke, Felix Hanke, Paula Havu,
          Ville Havu, Xinguo Ren, Karsten Reuter, and Matthias Scheffler,
          'Ab Initio Molecular Simulations with Numeric Atom-Centered Orbitals',
          Computer Physics Communications 180, 2175-2196 (2009)

          For any questions about FHI-aims, please visit the aimsclub website
          with its forums and wiki. Contributions to both the forums and the
          wiki are warmly encouraged - they are for you, and everyone is welcome there.

------------------------------------------------------------



  Date     :  20220223, Time     :  154249.632
  Time zero on CPU 1             :   0.192880000000000E-01  s.
  Internal wall clock time zero  :           414862969.632  s.

  FHI-aims created a unique identifier for this run for later identification
  aims_uuid : 2E5669E5-88A2-4A41-A7EF-C1863DFAC1A2

  Using        1 parallel tasks.
  Task        0 on host core401 reporting.

  Performing system and environment tests:
  *** Environment variable OMP_NUM_THREADS is not set
  *** For performance reasons you might want to set it to 1
  | Maximum stacksize for task 0: unlimited
  | Current stacksize for task 0: unlimited
  | Checking for scalapack...
  | Testing pdtran()...
  | All pdtran() tests passed.

  Obtaining array dimensions for all initial allocations:
  
  -----------------------------------------------------------------------
  Parsing control.in (first pass over file, find array dimensions only).
  The contents of control.in will be repeated verbatim below
  unless switched off by setting 'verbatim_writeout .false.' .
  in the first line of control.in .
  -----------------------------------------------------------------------
  
  #===============================================================================
  # FHI-aims file: ./control.in
  # Created using the Atomic Simulation Environment (ASE)
  # Wed Mar 24 12:41:28 2021
  #===============================================================================
  xc                                 pbe
  # relax_geometry                     bfgs 1e-4
  sc_accuracy_etot                   1e-06
  sc_accuracy_eev                    0.001
  sc_accuracy_rho                    1e-06
  sc_accuracy_forces                 0.0001
  many_body_dispersion
  k_grid                             3 3 3
  
    #output band 0.0   0.0   0.0   0.5   0.5   0.0    10  Gamma M
    #output band 0.5   0.5   0.0   0.5   0.5   0.5    10  M     R
    #output band 0.5   0.5   0.5   0.0   0.5   0.0    10  R     X
  
    #output  dos              -18. 10. 200 0.1
    #output  species_proj_dos -18. 10. 200 0.1
  
  #===============================================================================
  
  ################################################################################
  #
  #  FHI-aims code project
  # Volker Blum, Fritz Haber Institute Berlin, 2009
  #
  #  Suggested "tight" defaults for Li atom (to be pasted into control.in file)
  #
  #  2016/03/22: Increased cutoff radius to 5.0 AA (Xinguo Ren, Aug 15, 2015)
  #
  ################################################################################
    species        Li
  #     global species definitions
      nucleus             3
      mass                6.941
  #
      l_hartree           6
  #
      cut_pot             5.0  2.0  1.0
      basis_dep_cutoff    1e-4
  #
      radial_base         29 7.0
      radial_multiplier   2
      angular_grids       specified
        division   0.4484  110
        division   0.5659  194
        division   0.6315  302
        division   0.6662  434
  #      division   0.8186  590
  #      division   0.9037  770
  #      division   6.2760  974
  #      outer_grid   974
        outer_grid  434
  ################################################################################
  #
  #  Definition of "minimal" basis
  #
  ################################################################################
  #     valence basis states
      valence      2  s   1.
  #     ion occupancy
      ion_occ      1  s   2.
  ################################################################################
  #
  #  Suggested additional basis functions. For production calculations,
  #  uncomment them one after another (the most important basis functions are
  #  listed first).
  #
  #  Constructed for dimers: 1.80 A, 2.25 A, 2.75 A, 3.50 A, 4.50 A
  #
  ################################################################################
  #  "First tier" - improvements: -189.23 meV to -6.35 meV
       hydro 2 p 1.6
       hydro 2 s 2
       hydro 3 d 2.6
  #  "Second tier" - improvements: -4.69 meV to -0.41 meV
       hydro 3 p 4.6
       hydro 2 p 1.8
       hydro 3 s 6.2
       hydro 4 d 4.7
       hydro 4 f 4.1
  #  "Third tier" - improvements: -0.20 meV to -0.15 meV
  #     hydro 4 d 0.95
  #     hydro 3 p 6.2
  #     hydro 3 s 1.7
  #  Further functions, listed for completeness
  #     VB: The following functions are only listed for completeness; test very
  #         carefully before any kind of production use. From the point of view
  #         of the basis construction, their main role is to fill up space,
  #         and they are solely determined by the location of the cutoff potential.
  #     hydro 3 p 0.1  # -0.15 meV
  #     hydro 4 d 5    # -0.12 meV
  #     hydro 4 f 0.1  # -0.14 meV
  #     hydro 5 g 0.1  # -0.06 meV
  
  
  ################################################################################
  #
  # For methods that use the localized form of the "resolution of identity" for
  # the two-electron Coulomb operator (RI_method LVL), particularly Hartree-Fock and
  # hybrid density functional calculations, the highest accuracy can be obtained by
  # uncommenting the line beginning with "for_aux"  below, thus adding an extra g radial
  # function to the construction of the product basis set for the expansion.
  # See Ref. New J. Phys. 17, 093020 (2015) for more information, particularly Figs. 1 and 6.
  #
  ################################################################################
  #
  # for_aux hydro 5 g 6.0
  ################################################################################
  #
  #  FHI-aims code project
  # Volker Blum, Fritz Haber Institute Berlin, 2010
  #
  #  Suggested "tight" defaults for P atom (to be pasted into control.in file)
  #
  #  Revised Jan 04, 2011, following tests (SiC) done by Lydia Nemec:
  #     d function of tier 2 now enabled by default.
  #
  ################################################################################
    species        P
  #     global species definitions
      nucleus             15
      mass                30.973762
  #
      l_hartree           6
  #
      cut_pot             4.0          2.0  1.0
      basis_dep_cutoff    1e-4
  #
      radial_base         43 7.0
      radial_multiplier   2
      angular_grids       specified
        division   0.2995   50
        division   0.5998  110
        division   0.9240  194
        division   1.0921  302
        division   1.2863  434
  #      division   1.3165  590
  #      division   1.4113  770
  #      division   1.5128  974
  #      division   2.4980 1202
        outer_grid  434
  ################################################################################
  #
  #  Definition of "minimal" basis
  #
  ################################################################################
  #     valence basis states
      valence      3  s   2.
      valence      3  p   3.
  #     ion occupancy
      ion_occ      3  s   1.
      ion_occ      3  p   2.
  ################################################################################
  #
  #  Suggested additional basis functions. For production calculations,
  #  uncomment them one after another (the most important basis functions are
  #  listed first).
  #
  #  Constructed for dimers: 1.625 A, 1.875 A, 2.5 A, 3.25 A, 4.0 A
  #
  ################################################################################
  #  "First tier" - improvements: -726.20 meV to -35.91 meV
       ionic 3 d auto
       ionic 3 p auto
       hydro 4 f 6.2
       hydro 5 g 8.6
       ionic 3 s auto
  #  "Second tier" - improvements: -16.02 meV to -1.71 meV
       hydro 4 d 6.2
  #     hydro 4 p 9.2
  #     hydro 5 f 9.8
  #     hydro 1 s 0.7
  #     hydro 5 g 13.2
  #  "Third tier" - improvements: -1.82 meV to -0.20 meV
  #     hydro 3 p 2.5
  #     hydro 4 d 6.4
  #     hydro 5 f 11.2
  #     hydro 2 s 1.5
  #  "Fourth tier" - improvements: -0.91 meV to -0.17 meV
  #     hydro 3 d 16.8
  #     hydro 5 g 18
  #     hydro 4 p 4.5
  #     hydro 3 s 2.1
  #  Further basis functions that fell out of the optimization - < -0.09 meV
  #     hydro 4 p 10.4
  #     hydro 4 d 17.6
  #     hydro 4 s 11.2
  ################################################################################
  #
  # For methods that use the localized form of the "resolution of identity" for
  # the two-electron Coulomb operator (RI_method LVL), particularly Hartree-Fock and
  # hybrid density functional calculations, the highest accuracy can be obtained by
  # uncommenting the line beginning with "for_aux"  below, thus adding an extra g radial
  # function to the construction of the product basis set for the expansion.
  # See Ref. New J. Phys. 17, 093020 (2015) for more information, particularly Figs. 1 and 6.
  #
  ################################################################################
  #
  # for_aux hydro 5 g 6.0
  ################################################################################
  #
  #  FHI-aims code project
  # Volker Blum, Fritz Haber Institute Berlin, 2009
  #
  #  Suggested "tight" defaults for S atom (to be pasted into control.in file)
  #
  #  Revised Jan 04, 2011, following tests (SiC) done by Lydia Nemec:
  #     d and g functions of tier 2 now enabled by default.
  #
  ################################################################################
    species        S
  #     global species definitions
      nucleus             16
      mass                32.065
  #
      l_hartree           6
  #
      cut_pot             4.0          2.0  1.0
      basis_dep_cutoff    1e-4
  #
      radial_base         44 7.0
      radial_multiplier   2
      angular_grids       specified
        division   0.4665  110
        division   0.5810  194
        division   0.7139  302
        division   0.8274  434
  #      division   0.9105  590
  #      division   1.0975  770
  #      division   1.2028  974
  #      outer_grid  974
        outer_grid  434
  ################################################################################
  #
  #  Definition of "minimal" basis
  #
  ################################################################################
  #     valence basis states
      valence      3  s   2.
      valence      3  p   4.
  #     ion occupancy
      ion_occ      3  s   1.
      ion_occ      3  p   3.
  ################################################################################
  #
  #  Suggested additional basis functions. For production calculations,
  #  uncomment them one after another (the most important basis functions are
  #  listed first).
  #
  #  Constructed for dimers: 1.6 A, 1.9 A, 2.5 A, 3.25 A, 4.0 A
  #
  ################################################################################
  #  "First tier" - improvements: -652.81 meV to -45.53 meV
       ionic 3 d auto
       hydro 2 p 1.8
       hydro 4 f 7
       ionic 3 s auto
  #  "Second tier" - improvements: -30.20 meV to -1.74 meV
       hydro 4 d 6.2
       hydro 5 g 10.8
  #     hydro 4 p 4.9
  #     hydro 5 f 10
  #     hydro 1 s 0.8
  #  "Third tier" - improvements: -1.04 meV to -0.20 meV
  #     hydro 3 d 3.9
  #     hydro 3 d 2.7
  #     hydro 5 g 12
  #     hydro 4 p 10.4
  #     hydro 5 f 12.4
  #     hydro 2 s 1.9
  #  "Fourth tier" - improvements: -0.35 meV to -0.06 meV
  #     hydro 4 d 10.4
  #     hydro 4 p 7.2
  #     hydro 4 d 10
  #     hydro 5 g 19.2
  #     hydro 4 s 12
  
  ################################################################################
  #
  # For methods that use the localized form of the "resolution of identity" for
  # the two-electron Coulomb operator (RI_method LVL), particularly Hartree-Fock and
  # hybrid density functional calculations, the highest accuracy can be obtained by
  # uncommenting the line beginning with "for_aux"  below, thus adding an extra g radial
  # function to the construction of the product basis set for the expansion.
  # See Ref. New J. Phys. 17, 093020 (2015) for more information, particularly Figs. 1 and 6.
  #
  ################################################################################
  #
  # for_aux hydro 5 g 6.0
  ################################################################################
  #
  #  FHI-aims code project
  # Volker Blum, Fritz Haber Institute Berlin, 2009
  #
  #  Suggested "tight" defaults for Cl atom (to be pasted into control.in file)
  #
  #  Revised Jan 04, 2011, following tests (SiC) done by Lydia Nemec:
  #     d function of tier 2 now enabled by default.
  #
  ################################################################################
    species        Cl
  #     global species definitions
      nucleus             17
      mass                35.453
  #
      l_hartree           6
  #
      cut_pot             4.0          2.0  1.0
      basis_dep_cutoff    1e-4
  #
      radial_base         45 7.0
      radial_multiplier   2
      angular_grids       specified
        division   0.4412  110
        division   0.5489  194
        division   0.6734  302
        division   0.7794  434
  #      division   0.9402  590
  #      division   1.0779  770
  #      division   1.1792  974
  #      outer_grid  974
        outer_grid  434
  ################################################################################
  #
  #  Definition of "minimal" basis
  #
  ################################################################################
  #     valence basis states
      valence      3  s   2.
      valence      3  p   5.
  #     ion occupancy
      ion_occ      3  s   1.
      ion_occ      3  p   4.
  ################################################################################
  #
  #  Suggested additional basis functions. For production calculations,
  #  uncomment them one after another (the most important basis functions are
  #  listed first).
  #
  #  Constructed for dimers: 1.65 A, 2.0 A, 2.5 A, 3.25 A, 4.0 A
  #
  ################################################################################
  #  "First tier" - improvements: -429.57 meV to -15.03 meV
       ionic 3 d auto
       hydro 2 p 1.9
       hydro 4 f 7.4
       ionic 3 s auto
       hydro 5 g 10.4
  #  "Second tier" - improvements: -7.84 meV to -0.48 meV
       hydro 3 d 3.3
  #     hydro 5 f 9.8
  #     hydro 1 s 0.75
  #     hydro 5 g 11.2
  #     hydro 4 p 10.4
  #  "Third tier" - improvements: -1.00 meV to -0.12 meV
  #     hydro 4 d 12.8
  #     hydro 4 f 4.6
  #     hydro 4 d 10.8
  #     hydro 2 s 1.8
  #     hydro 3 p 3
  #  Further functions that fell out - improvements: -0.10 meV and below
  #     hydro 5 f 14.4
  #     hydro 4 s 12.8
  #     hydro 3 d 11.6
  #     hydro 4 s 4.1
  ################################################################################
  #
  # For methods that use the localized form of the "resolution of identity" for
  # the two-electron Coulomb operator (RI_method LVL), particularly Hartree-Fock and
  # hybrid density functional calculations, the highest accuracy can be obtained by
  # uncommenting the line beginning with "for_aux"  below, thus adding an extra g radial
  # function to the construction of the product basis set for the expansion.
  # See Ref. New J. Phys. 17, 093020 (2015) for more information, particularly Figs. 1 and 6.
  #
  ################################################################################
  #
  # for_aux hydro 5 g 6.0
  
  
  -----------------------------------------------------------------------
  Completed first pass over input file control.in .
  -----------------------------------------------------------------------
  
  
  -----------------------------------------------------------------------
  Parsing geometry.in (first pass over file, find array dimensions only).
  The contents of geometry.in will be repeated verbatim below
  unless switched off by setting 'verbatim_writeout .false.' .
  in the first line of geometry.in .
  -----------------------------------------------------------------------
  
  #=======================================================
  # FHI-aims file: ./geo/geometry.in.9
  # Created using the Atomic Simulation Environment (ASE)
  # Tue Feb 22 23:54:07 2022
  #=======================================================
  lattice_vector 7.5594508496000001 0.0000000000000000 0.0000000000000000
  lattice_vector 3.7797254248000010 6.5466764744134576 0.0000000000000000
  lattice_vector 3.7797254248000010 2.1822254914711530 6.1722657723895926
  atom 2.0645842998868051 1.1919883013043220 2.9434733073975559 Li
  atom 5.4948665497131959 3.1724626816379837 0.1426595787972407 Li
  atom 5.4948665497131959 1.1919883013043220 2.9434733073975559 Li
  atom 2.0645842998868051 3.1724626816379837 0.1426595787972407 Li
  atom 3.7797254248000001 0.2017511111374910 0.1426595787972407 Li
  atom 3.7797254248000010 4.1626998718048140 2.9434733073975559 Li
  atom 7.5594508496000010 4.3644509829423050 3.0861328861947963 P
  atom 5.8128800226729505 5.3728340763828761 3.7991674096004919 S
  atom 7.5594508118027477 4.3644509611200517 0.9470292542550525 S
  atom 7.5594508118027477 2.3476847305943993 3.7991674096004919 S
  atom 9.3060216009325440 5.3728340763828761 3.7991674096004919 S
  atom 3.7797254248000005 2.1822254914711525 1.5430664430973982 S
  atom 0.0000000000000000 0.0000000000000000 0.0000000000000000 Cl
  
  -----------------------------------------------------------------------
  Completed first pass over input file geometry.in .
  -----------------------------------------------------------------------
  

  Basic array size parameters:
  | Number of species                 :        4
  | Number of atoms                   :       13
  | Number of lattice vectors         :        3
  | Max. basis fn. angular momentum   :        4
  | Max. atomic/ionic basis occupied n:        3
  | Max. number of basis fn. types    :        3
  | Max. radial fns per species/type  :        8
  | Max. logarithmic grid size        :     1362
  | Max. radial integration grid size :       91
  | Max. angular integration grid size:      434
  | Max. angular grid division number :        8
  | Radial grid for Hartree potential :     1362
  | Number of spin channels           :        1

------------------------------------------------------------
          Reading file control.in.
------------------------------------------------------------
  XC: Using PBE gradient-corrected functionals.
  Convergence accuracy of total energy:  0.1000E-05
  Convergence accuracy of sum of eigenvalues:  0.1000E-02
  Convergence accuracy of self-consistent charge density:  0.1000E-05
  Convergence accuracy of forces:  0.1000E-03
  Using the default MBD implementation with analytical forces
  Found k-point grid:         3         3         3
 
  Reading configuration options for species Li                  .
  | Found nuclear charge :   3.0000
  | Found atomic mass :    6.94100000000000      amu
  | Found l_max for Hartree potential  :   6
  | Found cutoff potl. onset [A], width [A], scale factor :    5.00000    2.00000    1.00000
  | Threshold for basis-dependent cutoff potential is   0.100000E-03
  | Found data for basic radial integration grid :    29 points, outermost radius =    7.000 A
  | Found multiplier for basic radial grid :   2
  | Found angular grid specification: user-specified.
  | Specified grid contains     5 separate shells.
  | Check grid settings after all constraints further below.
  | Found free-atom valence shell :  2 s   1.000
  | Found free-ion valence shell :  1 s   2.000
  | Found hydrogenic basis function :  2 p   1.600
  | Found hydrogenic basis function :  2 s   2.000
  | Found hydrogenic basis function :  3 d   2.600
  | Found hydrogenic basis function :  3 p   4.600
  | Found hydrogenic basis function :  2 p   1.800
  | Found hydrogenic basis function :  3 s   6.200
  | Found hydrogenic basis function :  4 d   4.700
  | Found hydrogenic basis function :  4 f   4.100
  Species Li                  : Missing cutoff potential type.
  Defaulting to exp(1/x)/(1-x)^2 type cutoff potential.
  Species Li: No 'logarithmic' tag. Using default grid for free atom:
  | Default logarithmic grid data [bohr] : 0.1000E-03 0.1000E+03 0.1012E+01
  Species Li: On-site basis accuracy parameter (for Gram-Schmidt orthonormalisation) not specified.
  Using default value basis_acc =  0.1000000E-03.
  Species Li                  : Using default innermost maximum threshold i_radial=  2 for radial functions.
  Species Li                  : Default cutoff onset for free atom density etc. : 0.50000000E+01 AA.
  Species Li                  : Basic radial grid will be enhanced according to radial_multiplier =   2, to contain    59 grid points.
 
  Reading configuration options for species P                   .
  | Found nuclear charge :  15.0000
  | Found atomic mass :    30.9737620000000      amu
  | Found l_max for Hartree potential  :   6
  | Found cutoff potl. onset [A], width [A], scale factor :    4.00000    2.00000    1.00000
  | Threshold for basis-dependent cutoff potential is   0.100000E-03
  | Found data for basic radial integration grid :    43 points, outermost radius =    7.000 A
  | Found multiplier for basic radial grid :   2
  | Found angular grid specification: user-specified.
  | Specified grid contains     6 separate shells.
  | Check grid settings after all constraints further below.
  | Found free-atom valence shell :  3 s   2.000
  | Found free-atom valence shell :  3 p   3.000
  | Found free-ion valence shell :  3 s   1.000
  | Found free-ion valence shell :  3 p   2.000
  | Found ionic basis function :  3 d , default cutoff radius.
  | Found ionic basis function :  3 p , default cutoff radius.
  | Found hydrogenic basis function :  4 f   6.200
  | Found hydrogenic basis function :  5 g   8.600
  | Found ionic basis function :  3 s , default cutoff radius.
  | Found hydrogenic basis function :  4 d   6.200
  Species P                   : Missing cutoff potential type.
  Defaulting to exp(1/x)/(1-x)^2 type cutoff potential.
  Species P : No 'logarithmic' tag. Using default grid for free atom:
  | Default logarithmic grid data [bohr] : 0.1000E-03 0.1000E+03 0.1012E+01
  | Will include ionic basis functions of  2.0-fold positive P                    ion.
  Species P : On-site basis accuracy parameter (for Gram-Schmidt orthonormalisation) not specified.
  Using default value basis_acc =  0.1000000E-03.
  Species P                   : Using default innermost maximum threshold i_radial=  2 for radial functions.
  Species P                   : Default cutoff onset for free atom density etc. : 0.40000000E+01 AA.
  Species P                   : Basic radial grid will be enhanced according to radial_multiplier =   2, to contain    87 grid points.
 
  Reading configuration options for species S                   .
  | Found nuclear charge :  16.0000
  | Found atomic mass :    32.0650000000000      amu
  | Found l_max for Hartree potential  :   6
  | Found cutoff potl. onset [A], width [A], scale factor :    4.00000    2.00000    1.00000
  | Threshold for basis-dependent cutoff potential is   0.100000E-03
  | Found data for basic radial integration grid :    44 points, outermost radius =    7.000 A
  | Found multiplier for basic radial grid :   2
  | Found angular grid specification: user-specified.
  | Specified grid contains     5 separate shells.
  | Check grid settings after all constraints further below.
  | Found free-atom valence shell :  3 s   2.000
  | Found free-atom valence shell :  3 p   4.000
  | Found free-ion valence shell :  3 s   1.000
  | Found free-ion valence shell :  3 p   3.000
  | Found ionic basis function :  3 d , default cutoff radius.
  | Found hydrogenic basis function :  2 p   1.800
  | Found hydrogenic basis function :  4 f   7.000
  | Found ionic basis function :  3 s , default cutoff radius.
  | Found hydrogenic basis function :  4 d   6.200
  | Found hydrogenic basis function :  5 g  10.800
  Species S                   : Missing cutoff potential type.
  Defaulting to exp(1/x)/(1-x)^2 type cutoff potential.
  Species S : No 'logarithmic' tag. Using default grid for free atom:
  | Default logarithmic grid data [bohr] : 0.1000E-03 0.1000E+03 0.1012E+01
  | Will include ionic basis functions of  2.0-fold positive S                    ion.
  Species S : On-site basis accuracy parameter (for Gram-Schmidt orthonormalisation) not specified.
  Using default value basis_acc =  0.1000000E-03.
  Species S                   : Using default innermost maximum threshold i_radial=  2 for radial functions.
  Species S                   : Default cutoff onset for free atom density etc. : 0.40000000E+01 AA.
  Species S                   : Basic radial grid will be enhanced according to radial_multiplier =   2, to contain    89 grid points.
 
  Reading configuration options for species Cl                  .
  | Found nuclear charge :  17.0000
  | Found atomic mass :    35.4530000000000      amu
  | Found l_max for Hartree potential  :   6
  | Found cutoff potl. onset [A], width [A], scale factor :    4.00000    2.00000    1.00000
  | Threshold for basis-dependent cutoff potential is   0.100000E-03
  | Found data for basic radial integration grid :    45 points, outermost radius =    7.000 A
  | Found multiplier for basic radial grid :   2
  | Found angular grid specification: user-specified.
  | Specified grid contains     5 separate shells.
  | Check grid settings after all constraints further below.
  | Found free-atom valence shell :  3 s   2.000
  | Found free-atom valence shell :  3 p   5.000
  | Found free-ion valence shell :  3 s   1.000
  | Found free-ion valence shell :  3 p   4.000
  | Found ionic basis function :  3 d , default cutoff radius.
  | Found hydrogenic basis function :  2 p   1.900
  | Found hydrogenic basis function :  4 f   7.400
  | Found ionic basis function :  3 s , default cutoff radius.
  | Found hydrogenic basis function :  5 g  10.400
  | Found hydrogenic basis function :  3 d   3.300
  Species Cl                  : Missing cutoff potential type.
  Defaulting to exp(1/x)/(1-x)^2 type cutoff potential.
  Species Cl: No 'logarithmic' tag. Using default grid for free atom:
  | Default logarithmic grid data [bohr] : 0.1000E-03 0.1000E+03 0.1012E+01
  | Will include ionic basis functions of  2.0-fold positive Cl                   ion.
  Species Cl: On-site basis accuracy parameter (for Gram-Schmidt orthonormalisation) not specified.
  Using default value basis_acc =  0.1000000E-03.
  Species Cl                  : Using default innermost maximum threshold i_radial=  2 for radial functions.
  Species Cl                  : Default cutoff onset for free atom density etc. : 0.40000000E+01 AA.
  Species Cl                  : Basic radial grid will be enhanced according to radial_multiplier =   2, to contain    91 grid points.
  | MBD: Using the same k-grid sampling as DFT
 
  Finished reading input file 'control.in'. Consistency checks are next.
 
  MPI_IN_PLACE appears to work with this MPI implementation.
  | Keeping use_mpi_in_place .true. (see manual).
  Target number of points in a grid batch is not set. Defaulting to  100
  Method for grid partitioning is not set. Defaulting to parallel hash+maxmin partitioning.
  Batch size limit is not set. Defaulting to    200
  By default, will store active basis functions for each batch.
  If in need of memory, prune_basis_once .false. can be used to disable this option.
  communication_type for Hartree potential was not specified.
  Defaulting to calc_hartree .
  Defaulting to Pulay charge density mixer.
  Pulay mixer: Number of relevant iterations not set.
  Defaulting to    8 iterations.
  Pulay mixer: Number of initial linear mixing iterations not set.
  Defaulting to    0 iterations.
  Work space size for distributed Hartree potential not set.
  Defaulting to   0.200000E+03 MB.
  Mixing parameter for charge density mixing has not been set.
  Using default: charge_mix_param =     0.0500.
  The mixing parameter will be adjusted in iteration number     2 of the first full s.c.f. cycle only.
  Algorithm-dependent basis array size parameters:
  | n_max_pulay                         :        8
  Maximum number of self-consistency iterations not provided.
  Presetting  1000 iterations.
  Presetting      1001 iterations before the initial mixing cycle
  is restarted anyway using the sc_init_iter criterion / keyword.
  Presetting a factor      1.000 between actual scf density residual
  and density convergence criterion sc_accuracy_rho below which sc_init_iter
  takes no effect.
  Geometry relaxation not requested: no relaxation will be performed.
  Handling of forces: Unphysical translation and rotation will be removed from forces.
  No accuracy limit for integral partition fn. given. Defaulting to  0.1000E-14.
  No threshold value for u(r) in integrations given. Defaulting to  0.1000E-05.
  No occupation type (smearing scheme) given. Defaulting to Gaussian broadening, width =  0.1000E-01 eV.
  The width will be adjusted in iteration number     2 of the first full s.c.f. cycle only.
  S.C.F. convergence parameters will be adjusted in iteration number     2 of the first full s.c.f. cycle only.
  No accuracy for occupation numbers given. Defaulting to  0.1000E-12.
  No threshold value for occupation numbers given. Defaulting to  0.0000E+00.
  No accuracy for fermi level given. Defaulting to  0.1000E-19.
  Maximum # of iterations to find E_F not set. Defaulting to  200.
  Preferred method for the eigenvalue solver ('KS_method') not specified in 'control.in'.
  Defaulting to serial version, 'lapack_fast'.
  Will not use alltoall communication since running on < 1024 CPUs.
  Threshold for basis singularities not set.
  Default threshold for basis singularities:  0.1000E-04
  partition_type (choice of integration weights) for integrals was not specified.
  | Using a version of the partition function of Stratmann and coworkers ('stratmann_smoother').
  | At each grid point, the set of atoms used to build the partition table is smoothly restricted to
  | only those atoms whose free-atom density would be non-zero at that grid point.
  Partitioning for Hartree potential was not defined. Using partition_type for integrals.
  | Adjusted default value of keyword multip_moments_threshold to:       0.10000000E-11
  | This value may affect high angular momentum components of the Hartree potential in periodic systems.
  Spin handling was not defined in control.in. Defaulting to unpolarized case.
  Angular momentum expansion for Kerker preconditioner not set explicitly.
  | Using default value of   0
  No explicit requirement for turning off preconditioner.
  | By default, it will be turned off when the charge convergence reaches
  | sc_accuracy_rho  =   0.100000E-05
  | sc_accuracy_eev  =   0.100000E-02
  | sc_accuracy_etot =   0.100000E-05
  No special mixing parameter while Kerker preconditioner is on.
  Using default: charge_mix_param =     0.0500.
  No q(lm)/r^(l+1) cutoff set for long-range Hartree potential.
  | Using default value of  0.100000E-09 .
  | Verify using the multipole_threshold keyword.
  Defaulting to new monopole extrapolation.
  Density update method: automatic selection selected.
  Using density matrix based charge density update.
  Using density matrix based charge density update.
  Using packed matrix style: index .
  Defaulting to use time-reversal symmetry for k-point grid.
------------------------------------------------------------


------------------------------------------------------------
          Reading geometry description geometry.in.
------------------------------------------------------------
 * Warning! You did not set the 'relativistic' flag in input file 'control.in'.
 * Since you are not attempting to treat any elements beyond Ca(Z=20), FHI-aims
 * will default to 'relativistic none'.
 * You must ensure that this is really what you want!!
 * For example, DO NOT compute total-energy differences between results from
 * different settings of the 'relativistic' flag.
  Input structure read successfully.
  The structure contains       13 atoms,  and a total of        130.000 electrons.

  Input geometry:
  | Unit cell:
  |        7.55945085        0.00000000        0.00000000
  |        3.77972542        6.54667647        0.00000000
  |        3.77972542        2.18222549        6.17226577
  | Atomic structure:
  |       Atom                x [A]            y [A]            z [A]
  |    1: Species Li            2.06458430        1.19198830        2.94347331
  |    2: Species Li            5.49486655        3.17246268        0.14265958
  |    3: Species Li            5.49486655        1.19198830        2.94347331
  |    4: Species Li            2.06458430        3.17246268        0.14265958
  |    5: Species Li            3.77972542        0.20175111        0.14265958
  |    6: Species Li            3.77972542        4.16269987        2.94347331
  |    7: Species P             7.55945085        4.36445098        3.08613289
  |    8: Species S             5.81288002        5.37283408        3.79916741
  |    9: Species S             7.55945081        4.36445096        0.94702925
  |   10: Species S             7.55945081        2.34768473        3.79916741
  |   11: Species S             9.30602160        5.37283408        3.79916741
  |   12: Species S             3.77972542        2.18222549        1.54306644
  |   13: Species Cl            0.00000000        0.00000000        0.00000000

  Lattice parameters for 3D lattice (in Angstroms) :     7.559451    7.559451    7.559451
  Angle(s) between unit vectors (in degrees)      :    60.000000   60.000000   60.000000

  |

  | The smallest distance between any two atoms is         2.13910357 AA.
  |
  | The first atom of this pair is atom number                      7 .
  | The second atom of this pair is atom number                    11 .
  | Wigner-Seitz cell of the first atom image           0     0     0 .
  | (The Wigner-Seitz cell of the second atom is 0 0 0  by definition.)

  Symmetry information by spglib:
  | Precision set to  0.1E-04
  | Number of Operations  : 24
  | Space group           : 216
  | International         : F-43m
  | Schoenflies           : Td^2

  Quantities derived from the lattice vectors:
  | Reciprocal lattice vector 1:  0.831170 -0.479876 -0.339324
  | Reciprocal lattice vector 2:  0.000000  0.959752 -0.339324
  | Reciprocal lattice vector 3:  0.000000  0.000000  1.017971
  | Unit cell volume                               :   0.305461E+03  A^3

  Range separation radius for Ewald summation (hartree_convergence_parameter):      4.12251966 bohr.

  Fractional coordinates:
                         L1                L2                L3
       atom_frac         0.02311300        0.02311300        0.47688700  Li
       atom_frac         0.47688700        0.47688700        0.02311300  Li
       atom_frac         0.47688700        0.02311300        0.47688700  Li
       atom_frac         0.02311300        0.47688700        0.02311300  Li
       atom_frac         0.47688700        0.02311300        0.02311300  Li
       atom_frac         0.02311300        0.47688700        0.47688700  Li
       atom_frac         0.50000000        0.50000000        0.50000000  P
       atom_frac         0.15343300        0.61552233        0.61552233  S
       atom_frac         0.61552233        0.61552233        0.15343300  S
       atom_frac         0.61552233        0.15343300        0.61552233  S
       atom_frac         0.61552233        0.61552233        0.61552233  S
       atom_frac         0.25000000        0.25000000        0.25000000  S
       atom_frac         0.00000000        0.00000000        0.00000000  Cl

  Number of empty states per atom not set in control.in - providing a guess from actual geometry.
  | Total number of empty states used during s.c.f. cycle:       30
  If you use a very high smearing, use empty_states (per atom!) in control.in to increase this value.

  Structure-dependent array size parameters: 
  | Maximum number of distinct radial functions  :       43
  | Maximum number of basis functions            :      453
  | Number of Kohn-Sham states (occupied + empty):       95
------------------------------------------------------------

------------------------------------------------------------
          Preparing all fixed parts of the calculation.
------------------------------------------------------------
  Determining machine precision:
    2.225073858507201E-308
  Setting up grids for atomic and cluster calculations.

  Creating wave function, potential, and density for free atoms.

  Species: Li

  List of occupied orbitals and eigenvalues:
    n    l              occ      energy [Ha]    energy [eV]
    1    0           2.0000        -1.901473       -51.7417
    2    0           1.0000        -0.103132        -2.8064


  Species: P

  List of occupied orbitals and eigenvalues:
    n    l              occ      energy [Ha]    energy [eV]
    1    0           2.0000       -76.356288     -2077.7603
    2    0           2.0000        -6.358286      -173.0178
    3    0           2.0000        -0.509419       -13.8620
    2    1           6.0000        -4.573976      -124.4642
    3    1           3.0000        -0.201560        -5.4847


  Species: S

  List of occupied orbitals and eigenvalues:
    n    l              occ      energy [Ha]    energy [eV]
    1    0           2.0000       -88.108280     -2397.5483
    2    0           2.0000        -7.732485      -210.4116
    3    0           2.0000        -0.629532       -17.1304
    2    1           6.0000        -5.750324      -156.4743
    3    1           4.0000        -0.257562        -7.0086


  Species: Cl

  List of occupied orbitals and eigenvalues:
    n    l              occ      energy [Ha]    energy [eV]
    1    0           2.0000      -100.710795     -2740.4802
    2    0           2.0000        -9.222997      -250.9705
    3    0           2.0000        -0.754245       -20.5241
    2    1           6.0000        -7.039872      -191.5647
    3    1           5.0000        -0.316221        -8.6048

  Creating fixed part of basis set: Ionic, confined, hydrogenic.
 
  Li                   hydrogenic:
 
  List of hydrogenic basis orbitals: 
    n    l      effective z      eigenvalue [eV]  inner max. [A]     outer max. [A]     outer radius [A]   
    2    1         1.600000        -8.7048           1.319365           1.319365           6.386418
    2    0         2.000000       -13.6052           0.203259           1.385485           6.232164
    3    2         2.600000       -10.2084           1.835332           1.835332           6.386418
    3    1         4.600000       -31.9883           0.343834           1.385485           5.381805
    2    1         1.800000       -11.0199           1.181903           1.181903           6.386418
    3    0         6.200000       -58.1113           0.062858           1.111823           4.371906
    4    2         4.700000       -18.7772           0.761113           2.401695           6.386418
    4    3         4.100000       -14.2833           2.073992           2.073992           6.386418
 
 
  P                    ion:

  List of free ionic orbitals and eigenvalues:
    n    l      energy [Ha]    energy [eV]
    1    0       -77.297133     -2103.3620
    2    0        -7.273914      -197.9333
    3    0        -1.267536       -34.4914
    2    1        -5.491316      -149.4263
    3    1        -0.913470       -24.8568


  List of ionic basis orbitals and eigenvalues:
    n    l      energy [Ha]    energy [eV]    outer radius [A]
    3    2        -0.458060       -12.4644       5.404780
    3    1        -0.913461       -24.8565       4.724723
    3    0        -1.267529       -34.4912       4.232463

 
  P                    hydrogenic:
 
  List of hydrogenic basis orbitals: 
    n    l      effective z      eigenvalue [eV]  inner max. [A]     outer max. [A]     outer radius [A]   
    4    3         6.200000       -32.6870           1.357793           1.357793           5.339109
    5    4         8.600000       -40.2502           1.534356           1.534356           5.404780
    4    2         6.200000       -32.6848           0.577014           1.820771           5.404780
 
 
  S                    ion:

  List of free ionic orbitals and eigenvalues:
    n    l      energy [Ha]    energy [eV]
    1    0       -89.127201     -2425.2745
    2    0        -8.724378      -237.4024
    3    0        -1.464668       -39.8556
    2    1        -6.744348      -183.5230
    3    1        -1.048520       -28.5317


  List of ionic basis orbitals and eigenvalues:
    n    l      energy [Ha]    energy [eV]    outer radius [A]
    3    2        -0.496514       -13.5108       5.386362
    3    0        -1.464662       -39.8555       3.967934

 
  S                    hydrogenic:
 
  List of hydrogenic basis orbitals: 
    n    l      effective z      eigenvalue [eV]  inner max. [A]     outer max. [A]     outer radius [A]   
    2    1         1.800000       -11.0118           1.168531           1.168531           5.452614
    4    3         7.000000       -41.6672           1.212182           1.212182           5.066981
    4    2         6.200000       -32.6848           0.582121           1.814567           5.386362
    5    4        10.800000       -63.4785           1.227092           1.227092           4.766538
 
 
  Cl                   ion:

  List of free ionic orbitals and eigenvalues:
    n    l      energy [Ha]    energy [eV]
    1    0      -101.807232     -2770.3157
    2    0       -10.290876      -280.0290
    3    0        -1.664625       -45.2967
    2    1        -8.110237      -220.6908
    3    1        -1.183915       -32.2160


  List of ionic basis orbitals and eigenvalues:
    n    l      energy [Ha]    energy [eV]    outer radius [A]
    3    2        -0.529392       -14.4055       5.389057
    3    0        -1.664620       -45.2966       3.780461

 
  Cl                   hydrogenic:
 
  List of hydrogenic basis orbitals: 
    n    l      effective z      eigenvalue [eV]  inner max. [A]     outer max. [A]     outer radius [A]   
    2    1         1.900000       -12.2741           1.113321           1.113321           5.389057
    4    3         7.400000       -46.5653           1.140877           1.140877           4.886961
    5    4        10.400000       -58.8635           1.273568           1.273568           4.886961
    3    2         3.300000       -16.4532           1.439178           1.439178           5.455343
 

  Adding cutoff potential to free-atom effective potential.
  Creating atomic-like basis functions for current effective potential.

  Species Li                  :

  List of atomic basis orbitals and eigenvalues:
    n    l      energy [Ha]    energy [eV]    outer radius [A]
    1    0        -1.901473       -51.7417       4.318785
    2    0        -0.103132        -2.8064       6.464971


  Species P                   :

  List of atomic basis orbitals and eigenvalues:
    n    l      energy [Ha]    energy [eV]    outer radius [A]
    1    0       -76.356288     -2077.7603       0.736837
    2    0        -6.358286      -173.0178       2.532824
    3    0        -0.509419       -13.8620       5.274236
    2    1        -4.573976      -124.4642       2.862183
    3    1        -0.201560        -5.4847       5.404780


  Species S                   :

  List of atomic basis orbitals and eigenvalues:
    n    l      energy [Ha]    energy [eV]    outer radius [A]
    1    0       -88.108280     -2397.5483       0.682391
    2    0        -7.732485      -210.4116       2.317169
    3    0        -0.629532       -17.1304       5.256262
    2    1        -5.750324      -156.4743       2.555240
    3    1        -0.257562        -7.0086       5.386362


  Species Cl                  :

  List of atomic basis orbitals and eigenvalues:
    n    l      energy [Ha]    energy [eV]    outer radius [A]
    1    0      -100.710795     -2740.4802       0.642251
    2    0        -9.222997      -250.9705       2.128190
    3    0        -0.754245       -20.5241       5.194994
    2    1        -7.039872      -191.5647       2.346844
    3    1        -0.316221        -8.6048       5.323577

  Assembling full basis from fixed parts.
  | Species Li :   atomic orbital   1 s accepted.
  | Species Li :    hydro orbital   3 s accepted.
  | Species Li :    hydro orbital   2 s accepted.
  | Species Li :   atomic orbital   2 s accepted.
  | Species Li :    hydro orbital   3 p accepted.
  | Species Li :    hydro orbital   2 p accepted.
  | Species Li :    hydro orbital   2 p accepted.
  | Species Li :    hydro orbital   3 d accepted.
  | Species Li :    hydro orbital   4 d accepted.
  | Species Li :    hydro orbital   4 f accepted.
  | Species P :   atomic orbital   1 s accepted.
  | Species P :   atomic orbital   2 s accepted.
  | Species P :    ionic orbital   3 s accepted.
  | Species P :   atomic orbital   3 s accepted.
  | Species P :   atomic orbital   2 p accepted.
  | Species P :    ionic orbital   3 p accepted.
  | Species P :   atomic orbital   3 p accepted.
  | Species P :    ionic orbital   3 d accepted.
  | Species P :    hydro orbital   4 d accepted.
  | Species P :    hydro orbital   4 f accepted.
  | Species P :    hydro orbital   5 g accepted.
  | Species S :   atomic orbital   1 s accepted.
  | Species S :   atomic orbital   2 s accepted.
  | Species S :    ionic orbital   3 s accepted.
  | Species S :   atomic orbital   3 s accepted.
  | Species S :   atomic orbital   2 p accepted.
  | Species S :   atomic orbital   3 p accepted.
  | Species S :    hydro orbital   2 p accepted.
  | Species S :    ionic orbital   3 d accepted.
  | Species S :    hydro orbital   4 d accepted.
  | Species S :    hydro orbital   4 f accepted.
  | Species S :    hydro orbital   5 g accepted.
  | Species Cl :   atomic orbital   1 s accepted.
  | Species Cl :   atomic orbital   2 s accepted.
  | Species Cl :    ionic orbital   3 s accepted.
  | Species Cl :   atomic orbital   3 s accepted.
  | Species Cl :   atomic orbital   2 p accepted.
  | Species Cl :   atomic orbital   3 p accepted.
  | Species Cl :    hydro orbital   2 p accepted.
  | Species Cl :    ionic orbital   3 d accepted.
  | Species Cl :    hydro orbital   3 d accepted.
  | Species Cl :    hydro orbital   4 f accepted.
  | Species Cl :    hydro orbital   5 g accepted.
 
  Basis size parameters after reduction:
  | Total number of radial functions:       43
  | Total number of basis functions :      453
 
  Per-task memory consumption for arrays in subroutine allocate_ext:
  |          11.258640MB.
  Testing on-site integration grid accuracy.
  |  Species  Function  <phi|h_atom|phi> (log., in eV)  <phi|h_atom|phi> (rad., in eV)
           1        1                -51.7417001117                -51.7417000312
           1        2                 33.5927188637                 33.5926505054
           1        3                 69.1469416012                 69.1473382425
           1        4                 48.8336153902                 48.8810182289 ***
           1        5                 17.1749490570                 17.1749098864
           1        6                 32.1201183828                 32.1217831653
           1        7                  6.0166019876                  6.0249480535
           1        8                  4.9175332206                  4.9194842525
           1        9                 28.8010599263                 28.8011051086
           1       10                  9.9331480983                  9.9353515081
           2       11              -2077.7602992527              -2077.7602630746
           2       12               -173.0177635265               -173.0177629291
           2       13                -13.5620523038                -13.5620521963
           2       14                  6.3015351439                  6.3015396353
           2       15               -124.4642131574               -124.4642129967
           2       16                 -4.8468074573                 -4.8468065719
           2       17                  5.8113348591                  5.8108493787
           2       18                  5.1218113540                  5.1217878152
           2       19                 22.1386653152                 22.1386624883
           2       20                 19.3047268689                 19.3047231214
           2       21                 30.3235883931                 30.3235836780
           3       22              -2397.5482725833              -2397.5482291499
           3       23               -210.4116306505               -210.4116300246
           3       24                -16.8591546483                -16.8591544436
           3       25                  7.5848976656                  7.5849001027
           3       26               -156.4742745766               -156.4742744285
           3       27                 -7.0089268331                 -7.0089287934
           3       28                  6.8790437028                  6.8789536772
           3       29                  6.0023049431                  6.0023019693
           3       30                 19.5634804122                 19.5634829634
           3       31                 24.6809503130                 24.6809503093
           3       32                 47.5107032033                 47.5107040524
           4       33              -2740.4801671239              -2740.4801157382
           4       34               -250.9705040601               -250.9705032686
           4       35                -20.2716828479                -20.2716826054
           4       36                  9.0161300765                  9.0161279813
           4       37               -191.5646602865               -191.5646600866
           4       38                 -8.6049187754                 -8.6049181478
           4       39                  7.6458046208                  7.6458222053
           4       40                  6.9765726558                  6.9765744583
           4       41                 16.6546700656                 16.6546956458
           4       42                 28.0343243807                 28.0343233726
           4       43                 45.0370063060                 45.0370052039
 * Note: Onsite integrals marked "***" above are less accurate than
 * onsite_accuracy_threshold =    0.03000 eV. Usually, this is harmless.
 * When in doubt, tighten the "radial" and/or "radial_multiplier" flags to check.

  Preparing densities etc. for the partition functions (integrals / Hartree potential).

  Preparations completed.
  max(cpu_time)          :      0.325 s.
  Wall clock time (cpu1) :      0.326 s.
------------------------------------------------------------

------------------------------------------------------------
          Begin self-consistency loop: Initialization.

          Date     :  20220223, Time     :  154249.995
------------------------------------------------------------

  Initializing index lists of integration centers etc. from given atomic structure:
  Mapping all atomic coordinates to central unit cell.

  Initializing the k-points
          Using symmetry for reducing the k-points
  | k-points reduced from:       27 to       14
  | Number of k-points                             :        14
  The eigenvectors in the calculations are COMPLEX.
  | K-points in task   0:        14
  | Number of basis functions in the Hamiltonian integrals :      7857
  | Number of basis functions in a single unit cell        :       453
  | Number of centers in hartree potential         :      1549
  | Number of centers in hartree multipole         :       936
  | Number of centers in electron density summation:       785
  | Number of centers in basis integrals           :       825
  | Number of centers in integrals                 :       295
  | Number of centers in hamiltonian               :       951
  | Consuming         29 KiB for k_phase.
  | Number of super-cells (origin) [n_cells]                     :         729
  | Number of super-cells (after PM_index) [n_cells]             :         136
  | Number of super-cells in hamiltonian [n_cells_in_hamiltonian]:         136
  | Size of matrix packed + index [n_hamiltonian_matrix_size] :     1998833
  Partitioning the integration grid into batches with parallel hashing+maxmin method.
  | Number of batches:     3829
  | Maximal batch size:     134
  | Minimal batch size:      63
  | Average batch size:      70.548
  | Standard deviation of batch sizes:      16.672

  Integration load balanced across     1 MPI tasks.
  Work distribution over tasks is as follows:
  Task     0 has     270130 integration points.
  Initializing partition tables, free-atom densities, potentials, etc. across the integration grid (initialize_grid_storage).
  | initialize_grid_storage: Actual outermost partition radius vs. multipole_radius_free
  | (-- VB: in principle, multipole_radius_free should be larger, hence this output)
  | Species        1: Confinement radius =              7.000000000000000 AA, multipole_radius_free =              7.042572113910259 AA.
  | Species        1: outer_partition_radius set to              7.042572113910259 AA .
  | Species        2: Confinement radius =              6.000000000000000 AA, multipole_radius_free =              6.033387558927091 AA.
  | Species        2: outer_partition_radius set to              6.033387558927091 AA .
  | Species        3: Confinement radius =              6.000000000000000 AA, multipole_radius_free =              6.012827091137924 AA.
  | Species        3: outer_partition_radius set to              6.012827091137924 AA .
  | Species        4: Confinement radius =              6.000000000000000 AA, multipole_radius_free =              6.015836048499353 AA.
  | Species        4: outer_partition_radius set to              6.015836048499353 AA .
  | Original list of interatomic distances with         825 x        825 entries is created.
  | Net number of integration points:   270130
  | of which are non-zero points    :   219407
  | Numerical average free-atom electrostatic potential    :     -8.67109800 eV
  Renormalizing the initial density to the exact electron count on the 3D integration grid.
  | Initial density: Formal number of electrons (from input files) :     130.0000000000
  | Integrated number of electrons on 3D grid     :     130.0000247318
  | Charge integration error                      :       0.0000247318
  | Normalization factor for density and gradient :       0.9999998098
  Obtaining max. number of non-zero basis functions in each batch (get_n_compute_maxes).
  | Maximal number of non-zero basis functions:     1620 in task     0
  Allocating        9.640 MB for KS_eigenvector_complex
  Integrating Hamiltonian matrix: batch-based integration.
  Time summed over all CPUs for integration: real work       65.880 s, elapsed       65.880 s
  Integrating overlap matrix.
  Time summed over all CPUs for integration: real work       50.454 s, elapsed       50.454 s
  Decreasing sparse matrix size:
   Tolerance:  9.999999824516700E-014
   Hamiltonian matrix
  | Array has  1760434 nonzero elements out of  1998833 elements
  | Sparsity factor is 0.119
   Overlap matrix
  | Array has  1666610 nonzero elements out of  1998833 elements
  | Sparsity factor is 0.166
  New size of hamiltonian matrix:     1760791

  Updating Kohn-Sham eigenvalues and eigenvectors using ELSI and the ELPA eigensolver.
  Overlap matrix is nonsingular
  | Lowest eigenvalue of overlap  :  0.69E-04
  | Highest eigenvalue of overlap :  0.12E+02
  Finished singularity check of overlap matrix
  | Time :     0.034 s
  Finished Cholesky decomposition
  | Time :     0.008 s
  Finished transformation to standard eigenproblem
  | Time :     0.014 s
  Starting LAPACK eigensolver
  Finished solving standard eigenproblem
  | Time :     0.034 s
  Finished back-transformation of eigenvectors
  | Time :     0.002 s

  Obtaining occupation numbers and chemical potential using ELSI.
  | Chemical potential (Fermi level):    -8.57793241eV
  Writing Kohn-Sham eigenvalues.
  K-point:       1 at    0.000000    0.000000    0.000000 (in units of recip. lattice)

  State    Occupation    Eigenvalue [Ha]    Eigenvalue [eV]
      1       2.00000        -100.716331        -2740.63082
      2       2.00000         -88.178166        -2399.44999
      3       2.00000         -88.146470        -2398.58749
      4       2.00000         -88.146470        -2398.58749
      5       2.00000         -88.146470        -2398.58749
      6       2.00000         -88.146470        -2398.58749
      7       2.00000         -76.382788        -2078.48142
      8       2.00000          -9.228923         -251.13176
      9       2.00000          -7.805341         -212.39415
     10       2.00000          -7.773160         -211.51845
     11       2.00000          -7.773160         -211.51845
     12       2.00000          -7.773160         -211.51845
     13       2.00000          -7.773160         -211.51845
     14       2.00000          -7.045748         -191.72455
     15       2.00000          -7.045748         -191.72455
     16       2.00000          -7.045748         -191.72455
     17       2.00000          -6.389318         -173.86220
     18       2.00000          -5.822850         -158.44782
     19       2.00000          -5.822850         -158.44782
     20       2.00000          -5.822850         -158.44782
     21       2.00000          -5.791313         -157.58963
     22       2.00000          -5.791313         -157.58963
     23       2.00000          -5.791313         -157.58963
     24       2.00000          -5.791313         -157.58963
     25       2.00000          -5.790434         -157.56572
     26       2.00000          -5.790434         -157.56572
     27       2.00000          -5.790434         -157.56572
     28       2.00000          -5.790434         -157.56572
     29       2.00000          -5.790434         -157.56572
     30       2.00000          -5.790434         -157.56572
     31       2.00000          -5.790434         -157.56572
     32       2.00000          -5.790434         -157.56572
     33       2.00000          -4.604665         -125.29930
     34       2.00000          -4.604665         -125.29930
     35       2.00000          -4.604665         -125.29930
     36       2.00000          -1.915152          -52.11394
     37       2.00000          -1.915076          -52.11188
     38       2.00000          -1.915076          -52.11188
     39       2.00000          -1.915076          -52.11188
     40       2.00000          -1.915041          -52.11091
     41       2.00000          -1.915041          -52.11090
     42       2.00000          -0.789848          -21.49284
     43       2.00000          -0.766391          -20.85457
     44       2.00000          -0.739918          -20.13419
     45       2.00000          -0.715953          -19.48207
     46       2.00000          -0.715953          -19.48207
     47       2.00000          -0.715953          -19.48207
     48       2.00000          -0.564301          -15.35540
     49       2.00000          -0.430252          -11.70775
     50       2.00000          -0.430252          -11.70774
     51       2.00000          -0.430251          -11.70773
     52       2.00000          -0.387664          -10.54889
     53       2.00000          -0.387664          -10.54889
     54       2.00000          -0.387664          -10.54889
     55       2.00000          -0.359476           -9.78184
     56       2.00000          -0.359476           -9.78183
     57       2.00000          -0.346613           -9.43181
     58       2.00000          -0.346613           -9.43181
     59       2.00000          -0.346613           -9.43181
     60       2.00000          -0.326872           -8.89463
     61       2.00000          -0.326872           -8.89463
     62       2.00000          -0.326872           -8.89463
     63       2.00000          -0.317226           -8.63216
     64       2.00000          -0.317226           -8.63216
     65       2.00000          -0.317226           -8.63215
     66       0.00000          -0.211692           -5.76042
     67       0.00000          -0.153909           -4.18808
     68       0.00000          -0.134397           -3.65713
     69       0.00000          -0.134397           -3.65713
     70       0.00000          -0.134397           -3.65712
     71       0.00000          -0.091628           -2.49333
     72       0.00000          -0.091628           -2.49332
     73       0.00000          -0.091628           -2.49331
     74       0.00000          -0.041832           -1.13831
     75       0.00000          -0.041831           -1.13828
     76       0.00000          -0.041830           -1.13826
     77       0.00000          -0.028209           -0.76760
     78       0.00000          -0.028208           -0.76758
     79       0.00000          -0.013833           -0.37640
     80       0.00000          -0.013831           -0.37637
     81       0.00000           0.018424            0.50134
     82       0.00000           0.018425            0.50137
     83       0.00000           0.018427            0.50142
     84       0.00000           0.028882            0.78591
     85       0.00000           0.058949            1.60408
     86       0.00000           0.058950            1.60411
     87       0.00000           0.058951            1.60414
     88       0.00000           0.065960            1.79486
     89       0.00000           0.065960            1.79487
     90       0.00000           0.073320            1.99513
     91       0.00000           0.073321            1.99517
     92       0.00000           0.073322            1.99518
     93       0.00000           0.085154            2.31716
     94       0.00000           0.085156            2.31720
     95       0.00000           0.085156            2.31722

  What follows are estimated values for band gap, HOMO, LUMO, etc.
  | They are estimated on a discrete k-point grid and not necessarily exact.
  | For converged numbers, create a DOS and/or band structure plot on a denser k-grid.

  Highest occupied state (VBM) at     -8.62691605 eV (relative to internal zero)
  | Occupation number:      2.00000000
  | K-point:      10 at    0.333333    0.333333    0.333333 (in units of recip. lattice)

  Lowest unoccupied state (CBM) at    -5.76041968 eV (relative to internal zero)
  | Occupation number:      0.00000000
  | K-point:       1 at    0.000000    0.000000    0.000000 (in units of recip. lattice)

  ESTIMATED overall HOMO-LUMO gap:      2.86649637 eV between HOMO at k-point 10 and LUMO at k-point 1
  | This appears to be an indirect band gap.
  | Smallest direct gap :      2.87173532 eV for k_point 1 at    0.000000    0.000000    0.000000 (in units of recip. lattice)
  The gap value is above 0.2 eV. Unless you are using a very sparse k-point grid,
  this system is most likely an insulator or a semiconductor.
  Calculating total energy contributions from superposition of free atom densities.

  Total energy components:
  | Sum of eigenvalues            :       -1633.92022884 Ha      -44461.23158916 eV
  | XC energy correction          :        -189.86719626 Ha       -5166.54928141 eV
  | XC potential correction       :         245.27911524 Ha        6674.38431453 eV
  | Free-atom electrostatic energy:       -1258.81173259 Ha      -34254.01006854 eV
  | Hartree energy correction     :           0.00000000 Ha           0.00000000 eV
  | Entropy correction            :          -0.00000000 Ha          -0.00000000 eV
  | ---------------------------
  | Total energy                  :       -2837.32004245 Ha      -77207.40662457 eV
  | Total energy, T -> 0          :       -2837.32004245 Ha      -77207.40662457 eV  <-- do not rely on this value for anything but (periodic) metals
  | Electronic free energy        :       -2837.32004245 Ha      -77207.40662457 eV

  Derived energy quantities:
  | Kinetic energy                :        2832.41732447 Ha       77073.99688069 eV
  | Electrostatic energy          :       -5479.87017066 Ha     -149114.85422386 eV
  | Energy correction for multipole
  | error in Hartree potential    :           0.00000000 Ha           0.00000000 eV
  | Sum of eigenvalues per atom                           :       -3420.09473763 eV
  | Total energy (T->0) per atom                          :       -5939.03127881 eV  <-- do not rely on this value for anything but (periodic) metals
  | Electronic free energy per atom                       :       -5939.03127881 eV
  Initialize hartree_potential_storage
  Max. number of atoms included in rho_multipole:           13

  End scf initialization - timings             :  max(cpu_time)    wall_clock(cpu1)
  | Time for scf. initialization               :      133.190 s         133.196 s
  | Boundary condition initialization          :        0.552 s           0.552 s
  | Integration                                :      112.316 s         112.320 s
  | Solution of K.-S. eqns.                    :        1.404 s           1.404 s
  | Grid partitioning                          :        2.787 s           2.787 s
  | Preloading free-atom quantities on grid    :        0.015 s           0.015 s
  | Free-atom superposition energy             :        1.943 s           1.943 s
  | Total energy evaluation                    :        0.000 s           0.000 s

  Partial memory accounting:
  | Current value for overall tracked memory usage on task 0  :          44.857 MB
  | Peak value for overall tracked memory usage on task 0     :          75.862 MB after allocating wave
  | Largest tracked array allocation on task 0 so far         :          20.995 MB  when allocating hamiltonian_shell
  Note:  These values currently only include a subset of arrays which are explicitly tracked.
  The "true" memory usage will be greater.
------------------------------------------------------------

------------------------------------------------------------
          Begin self-consistency iteration #    1

  Date     :  20220223, Time     :  154503.191
------------------------------------------------------------
  Evaluating new KS density using the density matrix
  Evaluating density matrix
  Time summed over all CPUs for getting density from density matrix: real work      118.246 s, elapsed      118.246 s
  Integration grid: deviation in total charge (<rho> - N_e) =  -8.526513E-13
  Pulay mixing of updated and previous charge densities.

  Evaluating partitioned Hartree potential by multipole expansion.
  | Analytical far-field extrapolation by fixed multipoles:
  | Hartree multipole sum: apparent total charge =   0.137635E-02
  Summing up the Hartree potential.
  | Estimated reciprocal-space cutoff momentum G_max:         2.34940438 bohr^-1 .
  | Reciprocal lattice points for long-range Hartree potential:     458
  Time summed over all CPUs for potential: real work       18.698 s, elapsed       18.698 s
  | RMS charge density error from multipole expansion :   0.394559E-03
  | Average real-space part of the electrostatic potential :      0.01609733 eV

  Integrating Hamiltonian matrix: batch-based integration.
  Time summed over all CPUs for integration: real work       65.042 s, elapsed       65.042 s

  Updating Kohn-Sham eigenvalues and eigenvectors using ELSI and the ELPA eigensolver.
  Finished Cholesky decomposition
  | Time :     0.008 s
  Finished transformation to standard eigenproblem
  | Time :     0.015 s
  Starting LAPACK eigensolver
  Finished solving standard eigenproblem
  | Time :     0.032 s
  Finished back-transformation of eigenvectors
  | Time :     0.002 s

  Obtaining occupation numbers and chemical potential using ELSI.
  | Chemical potential (Fermi level):    -8.54018476eV
  Writing Kohn-Sham eigenvalues.
  K-point:       1 at    0.000000    0.000000    0.000000 (in units of recip. lattice)

  State    Occupation    Eigenvalue [Ha]    Eigenvalue [eV]
      1       2.00000        -100.707611        -2740.39352
      2       2.00000         -88.164661        -2399.08250
      3       2.00000         -88.141822        -2398.46100
      4       2.00000         -88.141822        -2398.46100
      5       2.00000         -88.141822        -2398.46100
      6       2.00000         -88.141822        -2398.46100
      7       2.00000         -76.394609        -2078.80307
      8       2.00000          -9.221848         -250.93926
      9       2.00000          -7.794222         -212.09158
     10       2.00000          -7.769634         -211.42250
     11       2.00000          -7.769634         -211.42249
     12       2.00000          -7.769634         -211.42249
     13       2.00000          -7.769634         -211.42249
     14       2.00000          -7.038512         -191.52767
     15       2.00000          -7.038512         -191.52767
     16       2.00000          -7.038512         -191.52767
     17       2.00000          -6.398701         -174.11751
     18       2.00000          -5.811514         -158.13934
     19       2.00000          -5.811514         -158.13934
     20       2.00000          -5.811514         -158.13934
     21       2.00000          -5.787945         -157.49800
     22       2.00000          -5.787945         -157.49800
     23       2.00000          -5.787945         -157.49800
     24       2.00000          -5.787945         -157.49800
     25       2.00000          -5.786670         -157.46330
     26       2.00000          -5.786670         -157.46330
     27       2.00000          -5.786670         -157.46330
     28       2.00000          -5.786670         -157.46330
     29       2.00000          -5.786670         -157.46330
     30       2.00000          -5.786670         -157.46330
     31       2.00000          -5.786670         -157.46330
     32       2.00000          -5.786670         -157.46330
     33       2.00000          -4.614231         -125.55962
     34       2.00000          -4.614231         -125.55962
     35       2.00000          -4.614231         -125.55962
     36       2.00000          -1.915304          -52.11807
     37       2.00000          -1.915229          -52.11602
     38       2.00000          -1.915229          -52.11602
     39       2.00000          -1.915228          -52.11601
     40       2.00000          -1.915193          -52.11505
     41       2.00000          -1.915193          -52.11504
     42       2.00000          -0.790741          -21.51717
     43       2.00000          -0.762436          -20.74694
     44       2.00000          -0.733414          -19.95720
     45       2.00000          -0.714950          -19.45478
     46       2.00000          -0.714950          -19.45478
     47       2.00000          -0.714950          -19.45478
     48       2.00000          -0.565084          -15.37672
     49       2.00000          -0.430714          -11.72033
     50       2.00000          -0.430714          -11.72033
     51       2.00000          -0.430714          -11.72032
     52       2.00000          -0.382816          -10.41696
     53       2.00000          -0.382816          -10.41696
     54       2.00000          -0.382816          -10.41696
     55       2.00000          -0.358486           -9.75489
     56       2.00000          -0.358485           -9.75488
     57       2.00000          -0.344893           -9.38502
     58       2.00000          -0.344893           -9.38501
     59       2.00000          -0.344893           -9.38501
     60       2.00000          -0.324363           -8.82636
     61       2.00000          -0.324363           -8.82636
     62       2.00000          -0.324363           -8.82635
     63       2.00000          -0.315842           -8.59448
     64       2.00000          -0.315841           -8.59448
     65       2.00000          -0.315841           -8.59448
     66       0.00000          -0.212395           -5.77956
     67       0.00000          -0.152802           -4.15794
     68       0.00000          -0.135499           -3.68710
     69       0.00000          -0.135498           -3.68710
     70       0.00000          -0.135498           -3.68709
     71       0.00000          -0.090237           -2.45546
     72       0.00000          -0.090236           -2.45545
     73       0.00000          -0.090236           -2.45544
     74       0.00000          -0.040811           -1.11051
     75       0.00000          -0.040809           -1.11048
     76       0.00000          -0.040809           -1.11046
     77       0.00000          -0.027595           -0.75090
     78       0.00000          -0.027594           -0.75087
     79       0.00000          -0.012749           -0.34691
     80       0.00000          -0.012747           -0.34688
     81       0.00000           0.019029            0.51780
     82       0.00000           0.019030            0.51782
     83       0.00000           0.019032            0.51788
     84       0.00000           0.030081            0.81853
     85       0.00000           0.059663            1.62351
     86       0.00000           0.059664            1.62354
     87       0.00000           0.059665            1.62357
     88       0.00000           0.067318            1.83182
     89       0.00000           0.067319            1.83183
     90       0.00000           0.073990            2.01337
     91       0.00000           0.073991            2.01340
     92       0.00000           0.073992            2.01342
     93       0.00000           0.086537            2.35480
     94       0.00000           0.086539            2.35485
     95       0.00000           0.086540            2.35487

  What follows are estimated values for band gap, HOMO, LUMO, etc.
  | They are estimated on a discrete k-point grid and not necessarily exact.
  | For converged numbers, create a DOS and/or band structure plot on a denser k-grid.

  Highest occupied state (VBM) at     -8.58918927 eV (relative to internal zero)
  | Occupation number:      2.00000000
  | K-point:      10 at    0.333333    0.333333    0.333333 (in units of recip. lattice)

  Lowest unoccupied state (CBM) at    -5.77955831 eV (relative to internal zero)
  | Occupation number:      0.00000000
  | K-point:       1 at    0.000000    0.000000    0.000000 (in units of recip. lattice)

  ESTIMATED overall HOMO-LUMO gap:      2.80963096 eV between HOMO at k-point 10 and LUMO at k-point 1
  | This appears to be an indirect band gap.
  | Smallest direct gap :      2.81492386 eV for k_point 1 at    0.000000    0.000000    0.000000 (in units of recip. lattice)
  The gap value is above 0.2 eV. Unless you are using a very sparse k-point grid,
  this system is most likely an insulator or a semiconductor.

  Total energy components:
  | Sum of eigenvalues            :       -1633.58993255 Ha      -44452.24377002 eV
  | XC energy correction          :        -189.89719947 Ha       -5167.36571016 eV
  | XC potential correction       :         245.31753960 Ha        6675.42989457 eV
  | Free-atom electrostatic energy:       -1258.81173259 Ha      -34254.01006854 eV
  | Hartree energy correction     :          -0.32561349 Ha          -8.86039396 eV
  | Entropy correction            :          -0.00000000 Ha          -0.00000000 eV
  | ---------------------------
  | Total energy                  :       -2837.30693850 Ha      -77207.05004811 eV
  | Total energy, T -> 0          :       -2837.30693850 Ha      -77207.05004811 eV  <-- do not rely on this value for anything but (periodic) metals
  | Electronic free energy        :       -2837.30693850 Ha      -77207.05004811 eV

  Derived energy quantities:
  | Kinetic energy                :        2832.58977676 Ha       77078.68954631 eV
  | Electrostatic energy          :       -5479.99951580 Ha     -149118.37388425 eV
  | Energy correction for multipole
  | error in Hartree potential    :          -0.00070668 Ha          -0.01922963 eV
  | Sum of eigenvalues per atom                           :       -3419.40336692 eV
  | Total energy (T->0) per atom                          :       -5939.00384985 eV  <-- do not rely on this value for anything but (periodic) metals
  | Electronic free energy per atom                       :       -5939.00384985 eV

  Self-consistency convergence accuracy:
  | Change of charge density      :  0.2846E+00
  | Change of sum of eigenvalues  :  0.8988E+01 eV
  | Change of total energy        :  0.3566E+00 eV

  End self-consistency iteration #     1       :  max(cpu_time)    wall_clock(cpu1)
  | Time for this iteration                    :      207.182 s         207.184 s
  | Charge density update                      :      114.250 s         114.252 s
  | Density mixing & preconditioning           :       11.080 s          11.080 s
  | Hartree multipole update                   :        0.022 s           0.022 s
  | Hartree multipole summation                :       18.123 s          18.123 s
  | Integration                                :       62.787 s          62.787 s
  | Solution of K.-S. eqns.                    :        0.920 s           0.920 s
  | Total energy evaluation                    :        0.000 s           0.000 s

  Partial memory accounting:
  | Current value for overall tracked memory usage on task 0  :          44.857 MB
  | Peak value for overall tracked memory usage on task 0     :          76.272 MB after allocating gradient_basis_wave
  | Largest tracked array allocation on task 0 so far         :          20.995 MB  when allocating hamiltonian_shell
  Note:  These values currently only include a subset of arrays which are explicitly tracked.
  The "true" memory usage will be greater.
------------------------------------------------------------

------------------------------------------------------------
          Begin self-consistency iteration #    2

  Date     :  20220223, Time     :  154830.377
------------------------------------------------------------
  Evaluating new KS density using the density matrix
  Evaluating density matrix
  Time summed over all CPUs for getting density from density matrix: real work      119.884 s, elapsed      119.884 s
  Integration grid: deviation in total charge (<rho> - N_e) =  -1.023182E-12
  Pulay mixing of updated and previous charge densities.

  Evaluating partitioned Hartree potential by multipole expansion.
  | Analytical far-field extrapolation by fixed multipoles:
  | Hartree multipole sum: apparent total charge =   0.166005E-01
  Summing up the Hartree potential.
  Time summed over all CPUs for potential: real work       20.743 s, elapsed       20.743 s
  | RMS charge density error from multipole expansion :   0.484233E-02
  | Average real-space part of the electrostatic potential :      0.19398393 eV

  Integrating Hamiltonian matrix: batch-based integration.
[...]
  |   Free atom volume        :     76.98066615
  |   Hirshfeld volume        :     76.22240578
  |   Hirshfeld dipole vector :      0.00000000       0.00001325       0.00000808
  |   Hirshfeld dipole moment :      0.00001552
  |   Hirshfeld second moments:     -0.09311978      -0.00000000      -0.00000000
  |                                 -0.00000000      -0.09312519      -0.00004702
  |                                 -0.00000000      -0.00004702      -0.09311100
  ----------------------------------------------------------------------
  | Atom    13: Cl
  |   Hirshfeld charge        :     -0.32510668
  |   Free atom volume        :     66.13469196
  |   Hirshfeld volume        :     65.46238039
  |   Hirshfeld dipole vector :      0.00000000      -0.00000149       0.00002319
  |   Hirshfeld dipole moment :      0.00002324
  |   Hirshfeld second moments:     -0.06971194       0.00000000       0.00000000
  |                                  0.00000000      -0.06967575      -0.00000342
  |                                  0.00000000      -0.00000342      -0.06968456
  ----------------------------------------------------------------------

  | Many-Body Dispersion (MBD@rsSCS) energy
  | Total dynamic anisotropic polarizability, \alpha_{ij}(iu), (a.u.)
  | -------------------------------------------------------------------
  |      u            xx         yy         zz         yz         xz         xy
  |   0.000000    665.825    665.830    665.828      0.003      0.000      0.000
   Negative alpha! Aborting this iteration
  | --------------------------------------------------------------

  Total energy components:
  | Sum of eigenvalues            :       -1630.52361159 Ha      -44368.80493124 eV
  | XC energy correction          :        -190.25737922 Ha       -5177.16669986 eV
  | XC potential correction       :         245.77671587 Ha        6687.92471667 eV
  | Free-atom electrostatic energy:       -1258.81173259 Ha      -34254.01006854 eV
  | Hartree energy correction     :          -3.42238024 Ha         -93.12770462 eV
  | Entropy correction            :          -0.00000000 Ha          -0.00000000 eV
  | ---------------------------
  | Total energy                  :       -2837.23838776 Ha      -77205.18468760 eV
  | Total energy, T -> 0          :       -2837.23838776 Ha      -77205.18468760 eV  <-- do not rely on this value for anything but (periodic) metals
  | Electronic free energy        :       -2837.23838776 Ha      -77205.18468760 eV

  Derived energy quantities:
  | Kinetic energy                :        2832.32815350 Ha       77071.57041505 eV
  | Electrostatic energy          :       -5479.30916205 Ha     -149099.58840279 eV
  | Energy correction for multipole
  | error in Hartree potential    :          -0.01578713 Ha          -0.42958959 eV
  | Sum of eigenvalues per atom                           :       -3412.98499471 eV
  | Total energy (T->0) per atom                          :       -5938.86036058 eV  <-- do not rely on this value for anything but (periodic) metals
  | Electronic free energy per atom                       :       -5938.86036058 eV

  atomic forces [eV/Ang]:
  -----------------------
  atom #    1
   Hellmann-Feynman              : -0.222910E-01 -0.129099E-01  0.180515E-01
   Ionic forces                  :  0.000000E+00  0.000000E+00  0.000000E+00
   Multipole                     : -0.316807E-02 -0.172394E-02  0.251698E-02
   Pulay + GGA                   :  0.893170E-01  0.514743E-01 -0.727111E-01
   Van der Waals                 :  0.000000E+00  0.000000E+00  0.000000E+00
   ----------------------------------------------------------------
   Total forces(   1)            :  0.638579E-01  0.368405E-01 -0.521426E-01
  atom #    2
   Hellmann-Feynman              :  0.220335E-01  0.129752E-01 -0.183159E-01
   Ionic forces                  :  0.000000E+00  0.000000E+00  0.000000E+00
   Multipole                     :  0.312494E-02  0.160026E-02 -0.253442E-02
   Pulay + GGA                   : -0.890021E-01 -0.514414E-01  0.730205E-01
   Van der Waals                 :  0.000000E+00  0.000000E+00  0.000000E+00
   ----------------------------------------------------------------
   Total forces(   2)            : -0.638437E-01 -0.368660E-01  0.521702E-01
  atom #    3
   Hellmann-Feynman              :  0.222909E-01 -0.129099E-01  0.180515E-01
   Ionic forces                  :  0.000000E+00  0.000000E+00  0.000000E+00
   Multipole                     :  0.316807E-02 -0.172394E-02  0.251698E-02
   Pulay + GGA                   : -0.893170E-01  0.514743E-01 -0.727111E-01
   Van der Waals                 :  0.000000E+00  0.000000E+00  0.000000E+00
   ----------------------------------------------------------------
   Total forces(   3)            : -0.638580E-01  0.368405E-01 -0.521426E-01
  atom #    4
   Hellmann-Feynman              : -0.220336E-01  0.129752E-01 -0.183159E-01
   Ionic forces                  :  0.000000E+00  0.000000E+00  0.000000E+00
   Multipole                     : -0.312494E-02  0.160026E-02 -0.253443E-02
   Pulay + GGA                   :  0.890021E-01 -0.514414E-01  0.730205E-01
   Van der Waals                 :  0.000000E+00  0.000000E+00  0.000000E+00
   ----------------------------------------------------------------
   Total forces(   4)            :  0.638436E-01 -0.368659E-01  0.521702E-01
  atom #    5
   Hellmann-Feynman              : -0.243293E-08 -0.263018E-01 -0.181310E-01
   Ionic forces                  :  0.000000E+00  0.000000E+00  0.000000E+00
   Multipole                     : -0.160068E-08 -0.355980E-02 -0.250133E-02
   Pulay + GGA                   : -0.355837E-08  0.103637E+00  0.727634E-01
   Van der Waals                 :  0.000000E+00  0.000000E+00  0.000000E+00
   ----------------------------------------------------------------
   Total forces(   5)            : -0.759198E-08  0.737754E-01  0.521311E-01
  atom #    6
   Hellmann-Feynman              : -0.364168E-07  0.255205E-01  0.183495E-01
   Ionic forces                  :  0.000000E+00  0.000000E+00  0.000000E+00
   Multipole                     :  0.486887E-08  0.363091E-02  0.239718E-02
   Pulay + GGA                   :  0.228592E-07 -0.102872E+00 -0.729344E-01
   Van der Waals                 :  0.000000E+00  0.000000E+00  0.000000E+00
   ----------------------------------------------------------------
   Total forces(   6)            : -0.868875E-08 -0.737208E-01 -0.521877E-01
  atom #    7
   Hellmann-Feynman              : -0.873579E-06 -0.165181E-02 -0.572093E-03
   Ionic forces                  :  0.000000E+00  0.000000E+00  0.000000E+00
   Multipole                     : -0.457205E-07  0.931397E-03  0.218767E-03
   Pulay + GGA                   :  0.271989E-06  0.742226E-03  0.319600E-03
   Van der Waals                 :  0.000000E+00  0.000000E+00  0.000000E+00
   ----------------------------------------------------------------
   Total forces(   7)            : -0.647311E-06  0.218140E-04 -0.337258E-04
  atom #    8
   Hellmann-Feynman              : -0.123807E+02  0.714817E+01  0.505215E+01
   Ionic forces                  :  0.000000E+00  0.000000E+00  0.000000E+00
   Multipole                     :  0.231300E+00 -0.132895E+00 -0.943196E-01
   Pulay + GGA                   :  0.129255E+02 -0.746327E+01 -0.527467E+01
   Van der Waals                 :  0.000000E+00  0.000000E+00  0.000000E+00
   ----------------------------------------------------------------
   Total forces(   8)            :  0.776128E+00 -0.447993E+00 -0.316842E+00
  atom #    9
   Hellmann-Feynman              : -0.141480E-06 -0.130981E-02 -0.151648E+02
   Ionic forces                  :  0.000000E+00  0.000000E+00  0.000000E+00
   Multipole                     : -0.801964E-08  0.103609E-02  0.283913E+00
   Pulay + GGA                   :  0.330697E-06  0.339302E-03  0.158314E+02
   Van der Waals                 :  0.000000E+00  0.000000E+00  0.000000E+00
   ----------------------------------------------------------------
   Total forces(   9)            :  0.181197E-06  0.655799E-04  0.950452E+00
  atom #   10
   Hellmann-Feynman              : -0.136489E-06 -0.142993E+02  0.505431E+01
   Ionic forces                  :  0.000000E+00  0.000000E+00  0.000000E+00
   Multipole                     : -0.830326E-08  0.268904E+00 -0.937008E-01
   Pulay + GGA                   :  0.319049E-06  0.149271E+02 -0.527750E+01
   Van der Waals                 :  0.000000E+00  0.000000E+00  0.000000E+00
   ----------------------------------------------------------------
   Total forces(  10)            :  0.174257E-06  0.896628E+00 -0.316898E+00
  atom #   11
   Hellmann-Feynman              :  0.123807E+02  0.714817E+01  0.505215E+01
   Ionic forces                  :  0.000000E+00  0.000000E+00  0.000000E+00
   Multipole                     : -0.231300E+00 -0.132895E+00 -0.943196E-01
   Pulay + GGA                   : -0.129255E+02 -0.746327E+01 -0.527467E+01
   Van der Waals                 :  0.000000E+00  0.000000E+00  0.000000E+00
   ----------------------------------------------------------------
   Total forces(  11)            : -0.776128E+00 -0.447993E+00 -0.316842E+00
  atom #   12
   Hellmann-Feynman              : -0.455417E-06 -0.362757E-04  0.138162E-02
   Ionic forces                  :  0.000000E+00  0.000000E+00  0.000000E+00
   Multipole                     :  0.459779E-08  0.310442E-03 -0.152376E-02
   Pulay + GGA                   :  0.263804E-05 -0.218152E-03  0.110758E-03
   Van der Waals                 :  0.000000E+00  0.000000E+00  0.000000E+00
   ----------------------------------------------------------------
   Total forces(  12)            :  0.218722E-05  0.560138E-04 -0.313822E-04
  atom #   13
   Hellmann-Feynman              : -0.796828E-07  0.464071E-03 -0.830222E-03
   Ionic forces                  :  0.000000E+00  0.000000E+00  0.000000E+00
   Multipole                     :  0.880211E-10  0.409220E-05 -0.584715E-05
   Pulay + GGA                   :  0.607375E-07 -0.526303E-03  0.769843E-03
   Van der Waals                 :  0.000000E+00  0.000000E+00  0.000000E+00
   ----------------------------------------------------------------
   Total forces(  13)            : -0.188574E-07 -0.581403E-04 -0.662256E-04

  Timings for VdW correction (Tkatchenko-Scheffler 2009 or later):
  | CPU time:       56.584 s, Wall clock time:       56.584 s.
  Removing unitary transformations (pure translations, rotations) from forces on atoms.
  Atomic forces before filtering:
  | Net force on center of mass :   0.217748E-05  0.730571E-03 -0.262995E-03 eV/A
  Atomic forces after filtering:
  | Net force on center of mass :  -0.106146E-15 -0.980014E-16 -0.162290E-15 eV/A

  Energy and forces in a compact form:
  | Total energy uncorrected      :         -0.772051846875991E+05 eV
  | Total energy corrected        :         -0.772051846875991E+05 eV  <-- do not rely on this value for anything but (periodic) metals
  | Electronic free energy        :         -0.772051846875991E+05 eV
  Total atomic forces (unitary forces cleaned) [eV/Ang]:
  |   1          0.638577449614350E-01          0.367842602935609E-01         -0.521223364847956E-01
  |   2         -0.638438824080612E-01         -0.369221524976581E-01          0.521904581402591E-01
  |   3         -0.638581659638540E-01          0.367842986360766E-01         -0.521223926365330E-01
  |   4          0.638434614327071E-01         -0.369221123053087E-01          0.521904037048522E-01
  |   5         -0.175090497589527E-06          0.737192016891486E-01          0.521513053817741E-01
  |   6         -0.176187265707002E-06         -0.737769647721946E-01         -0.521674909652166E-01
  |   7         -0.814809228078172E-06         -0.343837310937590E-04         -0.134954451071441E-04
  |   8          0.776128172866809E+00         -0.448049353212379E+00         -0.316821918337066E+00
  |   9          0.136984428361771E-07          0.938209912918041E-05          0.950472135191876E+00
  |  10          0.675826648596202E-08          0.896571600393014E+00         -0.316877658763021E+00
  |  11         -0.776128018629059E+00         -0.448049254603976E+00         -0.316821862855839E+00
  |  12          0.201972619019388E-05         -0.183918927305470E-06         -0.111517604035094E-04
  |  13         -0.186355885366991E-06         -0.114338069392492E-03         -0.459951707791097E-04

  ------------------------------------ 
  Start decomposition of the XC Energy 
  ------------------------------------ 
  X and C from original XC functional choice 
  Hartree-Fock Energy :          0.000000000 Ha              0.000000000 eV
  X Energy            :       -185.444349840 Ha          -5046.197506861 eV
  C Energy            :         -4.813029378 Ha           -130.969193004 eV
  Total XC Energy     :       -190.257379218 Ha          -5177.166699865 eV
  ------------------------------------ 
  LDA X and C from self-consistent density 
  X Energy LDA        :       -171.479824243 Ha          -4666.203431470 eV
  C Energy LDA        :         -9.767847366 Ha           -265.796650414 eV
  ------------------------------------ 
  End decomposition of the XC Energy 
  ------------------------------------ 

------------------------------------------------------------

------------------------------------------------------------------------------
  Final output of selected total energy values:

  The following output summarizes some interesting total energy values
  at the end of a run (AFTER all relaxation, molecular dynamics, etc.).

  | Total energy of the DFT / Hartree-Fock s.c.f. calculation      :         -77205.184687599 eV
  | Final zero-broadening corrected energy (caution - metals only) :         -77205.184687599 eV
  | For reference only, the value of 1 Hartree used in FHI-aims is :             27.211384500 eV

  Before relying on these values, please be sure to understand exactly which
  total energy value is referred to by a given number. Different objects may
  all carry the same name 'total energy'. Definitions:

  Total energy of the DFT / Hartree-Fock s.c.f. calculation:
  | Note that this energy does not include ANY quantities calculated after the
  | s.c.f. cycle, in particular not ANY RPA, MP2, etc. many-body perturbation terms.

  Final zero-broadening corrected energy:
  | For metallic systems only, a broadening of the occupation numbers at the Fermi
  | level can be extrapolated back to zero broadening by an electron-gas inspired
  | formula. For all systems that are not real metals, this value can be
  | meaningless and should be avoided.

------------------------------------------------------------------------------
  Methods described in the following list of references were used in this FHI-aims run.
  If you publish the results, please make sure to cite these reference if they apply.
  FHI-aims is an academic code, and for our developers (often, Ph.D. students
  and postdocs), scientific credit in the community is essential.
  Thank you for helping us!

  For any use of FHI-aims, please cite:

    Volker Blum, Ralf Gehrke, Felix Hanke, Paula Havu, Ville Havu,
    Xinguo Ren, Karsten Reuter, and Matthias Scheffler
    'Ab initio molecular simulations with numeric atom-centered orbitals'
    Computer Physics Communications 180, 2175-2196 (2009)
    http://dx.doi.org/10.1016/j.cpc.2009.06.022


  The provided symmetry information was generated with SPGlib:

    Atsushi Togo, Yusuke Seto, Dimitar Pashov
    SPGlib 1.7.3 obtained from http://spglib.sourceforge.net
    Copyright (C) 2008 Atsushi Togo


  The scalable eigensolver library ELPA was used in your run.
  ELPA is essential especially for large systems on hundreds or thousands of CPUs.
  For ELPA, please cite:

    Andreas Marek, Volker Blum, Rainer Johanni, Ville Havu, Bruno Lang,
    Thomas Auckenthaler, Alexander Heinecke, Hans-Joachim Bungartz, and Hermann Lederer,
    'The ELPA Library - Scalable Parallel Eigenvalue Solutions
    for Electronic Structure Theory and Computational Science'
    The Journal of Physics: Condensed Matter 26, 213201 (2014).
    http://dx.doi.org/10.1088/0953-8984/26/21/213201


  The ELSI infrastructure was used in your run to solve the Kohn-Sham electronic structure.
  Please check out http://elsi-interchange.org to learn more.
  If scalability is important for your project, please acknowledge ELSI by citing:

    V. W-z. Yu, F. Corsetti, A. Garcia, W. P. Huhn, M. Jacquelin, W. Jia,
    B. Lange, L. Lin, J. Lu, W. Mi, A. Seifitokaldani, A. Vazquez-Mayagoitia,
    C. Yang, H. Yang, and V. Blum
    'ELSI: A unified software interface for Kohn-Sham electronic structure solvers'
    Computer Physics Communications 222, 267-285 (2018).
    http://dx.doi.org/10.1016/j.cpc.2017.09.007


  For the real-space grid partitioning and parallelization used in this calculation, please cite:

    Ville Havu, Volker Blum, Paula Havu, and Matthias Scheffler,
    'Efficient O(N) integration for all-electron electronic structure calculation'
    'using numerically tabulated basis functions'
    Journal of Computational Physics 228, 8367-8379 (2009).
    http://dx.doi.org/10.1016/j.jcp.2009.08.008

  Of course, there are many other important community references, e.g., those cited in the
  above references. Our list is limited to references that describe implementations in the
  FHI-aims code. The reason is purely practical (length of this list) - please credit others as well.

------------------------------------------------------------
          Leaving FHI-aims.
          Date     :  20220223, Time     :  171116.529

          Computational steps:
          | Number of self-consistency cycles          :           21
          | Number of SCF (re)initializations          :            1

          Detailed time accounting                     :  max(cpu_time)    wall_clock(cpu1)
          | Total time                                 :     5304.202 s        5306.897 s
          | Preparation time                           :        0.325 s           0.326 s
          | Boundary condition initalization           :        0.552 s           0.552 s
          | Grid partitioning                          :        2.787 s           2.787 s
          | Preloading free-atom quantities on grid    :        0.015 s           0.015 s
          | Free-atom superposition energy             :        1.943 s           1.943 s
          | Total time for integrations                :     1372.443 s        1373.179 s
          | Total time for solution of K.-S. equations :       20.091 s          20.098 s
          | Total time for density & force components  :     3070.839 s        3072.468 s
          | Total time for mixing & preconditioning    :      204.168 s         204.231 s
          | Total time for Hartree multipole update    :        0.529 s           0.528 s
          | Total time for Hartree multipole sum       :      559.549 s         559.719 s
          | Total time for total energy evaluation     :        0.003 s           0.004 s
          | Total time for vdW correction              :       56.584 s          56.584 s

          Partial memory accounting:
          | Residual value for overall tracked memory usage across tasks :           0.000 MB (should be 0.000 MB)
          | Peak values for overall tracked memory usage (after allocating wave_pulay):
          |   Minimum:      100.586 MB (on task 1)
          |   Maximum:      100.586 MB (on task 1)
          |   Average:      100.586 MB
          | Largest tracked array allocation (hamiltonian_shell):
          |   Minimum:       20.995 MB (on task 1)
          |   Maximum:       20.995 MB (on task 1)
          |   Average:       20.995 MB
          Note:  These values currently only include a subset of arrays which are explicitly tracked.
          The "true" memory usage will be greater.

          Have a nice day.
------------------------------------------------------------
