  MPI-parallelism will be employed.
------------------------------------------------------------
          Invoking FHI-aims ...
          Version 171221_1
          Compiled on 2020/11/22 at 19:48:33 on host core401.

          When using FHI-aims, please cite the following reference:

          Volker Blum, Ralf Gehrke, Felix Hanke, Paula Havu,
          Ville Havu, Xinguo Ren, Karsten Reuter, and Matthias Scheffler,
          'Ab Initio Molecular Simulations with Numeric Atom-Centered Orbitals',
          Computer Physics Communications 180, 2175-2196 (2009)

          For any questions about FHI-aims, please visit the aimsclub website
          with its forums and wiki. Contributions to both the forums and the
          wiki are warmly encouraged - they are for you, and everyone is welcome there.

------------------------------------------------------------



  Date     :  20220223, Time     :  035015.368
  Time zero on CPU 1             :   0.662680000000000E-01  s.
  Internal wall clock time zero  :           414820215.368  s.

  FHI-aims created a unique identifier for this run for later identification
  aims_uuid : 30AB84ED-04E9-4934-A5E5-4C0A566A22DB

  Using        1 parallel tasks.
  Task        0 on host core401 reporting.

  Performing system and environment tests:
  *** Environment variable OMP_NUM_THREADS is not set
  *** For performance reasons you might want to set it to 1
  | Maximum stacksize for task 0: unlimited
  | Current stacksize for task 0: unlimited
  | Checking for scalapack...
  | Testing pdtran()...
  | All pdtran() tests passed.

  Obtaining array dimensions for all initial allocations:
  
  -----------------------------------------------------------------------
  Parsing control.in (first pass over file, find array dimensions only).
  The contents of control.in will be repeated verbatim below
  unless switched off by setting 'verbatim_writeout .false.' .
  in the first line of control.in .
  -----------------------------------------------------------------------
  
  #===============================================================================
  # FHI-aims file: ./control.in
  # Created using the Atomic Simulation Environment (ASE)
  # Wed Mar 24 12:41:28 2021
  #===============================================================================
  xc                                 pbe
  # relax_geometry                     bfgs 1e-4
  sc_accuracy_etot                   1e-06
  sc_accuracy_eev                    0.001
  sc_accuracy_rho                    1e-06
  sc_accuracy_forces                 0.0001
  many_body_dispersion
  k_grid                             3 3 3
  
    #output band 0.0   0.0   0.0   0.5   0.5   0.0    10  Gamma M
    #output band 0.5   0.5   0.0   0.5   0.5   0.5    10  M     R
    #output band 0.5   0.5   0.5   0.0   0.5   0.0    10  R     X
  
    #output  dos              -18. 10. 200 0.1
    #output  species_proj_dos -18. 10. 200 0.1
  
  #===============================================================================
  
  ################################################################################
  #
  #  FHI-aims code project
  # Volker Blum, Fritz Haber Institute Berlin, 2009
  #
  #  Suggested "tight" defaults for Li atom (to be pasted into control.in file)
  #
  #  2016/03/22: Increased cutoff radius to 5.0 AA (Xinguo Ren, Aug 15, 2015)
  #
  ################################################################################
    species        Li
  #     global species definitions
      nucleus             3
      mass                6.941
  #
      l_hartree           6
  #
      cut_pot             5.0  2.0  1.0
      basis_dep_cutoff    1e-4
  #
      radial_base         29 7.0
      radial_multiplier   2
      angular_grids       specified
        division   0.4484  110
        division   0.5659  194
        division   0.6315  302
        division   0.6662  434
  #      division   0.8186  590
  #      division   0.9037  770
  #      division   6.2760  974
  #      outer_grid   974
        outer_grid  434
  ################################################################################
  #
  #  Definition of "minimal" basis
  #
  ################################################################################
  #     valence basis states
      valence      2  s   1.
  #     ion occupancy
      ion_occ      1  s   2.
  ################################################################################
  #
  #  Suggested additional basis functions. For production calculations,
  #  uncomment them one after another (the most important basis functions are
  #  listed first).
  #
  #  Constructed for dimers: 1.80 A, 2.25 A, 2.75 A, 3.50 A, 4.50 A
  #
  ################################################################################
  #  "First tier" - improvements: -189.23 meV to -6.35 meV
       hydro 2 p 1.6
       hydro 2 s 2
       hydro 3 d 2.6
  #  "Second tier" - improvements: -4.69 meV to -0.41 meV
       hydro 3 p 4.6
       hydro 2 p 1.8
       hydro 3 s 6.2
       hydro 4 d 4.7
       hydro 4 f 4.1
  #  "Third tier" - improvements: -0.20 meV to -0.15 meV
  #     hydro 4 d 0.95
  #     hydro 3 p 6.2
  #     hydro 3 s 1.7
  #  Further functions, listed for completeness
  #     VB: The following functions are only listed for completeness; test very
  #         carefully before any kind of production use. From the point of view
  #         of the basis construction, their main role is to fill up space,
  #         and they are solely determined by the location of the cutoff potential.
  #     hydro 3 p 0.1  # -0.15 meV
  #     hydro 4 d 5    # -0.12 meV
  #     hydro 4 f 0.1  # -0.14 meV
  #     hydro 5 g 0.1  # -0.06 meV
  
  
  ################################################################################
  #
  # For methods that use the localized form of the "resolution of identity" for
  # the two-electron Coulomb operator (RI_method LVL), particularly Hartree-Fock and
  # hybrid density functional calculations, the highest accuracy can be obtained by
  # uncommenting the line beginning with "for_aux"  below, thus adding an extra g radial
  # function to the construction of the product basis set for the expansion.
  # See Ref. New J. Phys. 17, 093020 (2015) for more information, particularly Figs. 1 and 6.
  #
  ################################################################################
  #
  # for_aux hydro 5 g 6.0
  ################################################################################
  #
  #  FHI-aims code project
  # Volker Blum, Fritz Haber Institute Berlin, 2010
  #
  #  Suggested "tight" defaults for P atom (to be pasted into control.in file)
  #
  #  Revised Jan 04, 2011, following tests (SiC) done by Lydia Nemec:
  #     d function of tier 2 now enabled by default.
  #
  ################################################################################
    species        P
  #     global species definitions
      nucleus             15
      mass                30.973762
  #
      l_hartree           6
  #
      cut_pot             4.0          2.0  1.0
      basis_dep_cutoff    1e-4
  #
      radial_base         43 7.0
      radial_multiplier   2
      angular_grids       specified
        division   0.2995   50
        division   0.5998  110
        division   0.9240  194
        division   1.0921  302
        division   1.2863  434
  #      division   1.3165  590
  #      division   1.4113  770
  #      division   1.5128  974
  #      division   2.4980 1202
        outer_grid  434
  ################################################################################
  #
  #  Definition of "minimal" basis
  #
  ################################################################################
  #     valence basis states
      valence      3  s   2.
      valence      3  p   3.
  #     ion occupancy
      ion_occ      3  s   1.
      ion_occ      3  p   2.
  ################################################################################
  #
  #  Suggested additional basis functions. For production calculations,
  #  uncomment them one after another (the most important basis functions are
  #  listed first).
  #
  #  Constructed for dimers: 1.625 A, 1.875 A, 2.5 A, 3.25 A, 4.0 A
  #
  ################################################################################
  #  "First tier" - improvements: -726.20 meV to -35.91 meV
       ionic 3 d auto
       ionic 3 p auto
       hydro 4 f 6.2
       hydro 5 g 8.6
       ionic 3 s auto
  #  "Second tier" - improvements: -16.02 meV to -1.71 meV
       hydro 4 d 6.2
  #     hydro 4 p 9.2
  #     hydro 5 f 9.8
  #     hydro 1 s 0.7
  #     hydro 5 g 13.2
  #  "Third tier" - improvements: -1.82 meV to -0.20 meV
  #     hydro 3 p 2.5
  #     hydro 4 d 6.4
  #     hydro 5 f 11.2
  #     hydro 2 s 1.5
  #  "Fourth tier" - improvements: -0.91 meV to -0.17 meV
  #     hydro 3 d 16.8
  #     hydro 5 g 18
  #     hydro 4 p 4.5
  #     hydro 3 s 2.1
  #  Further basis functions that fell out of the optimization - < -0.09 meV
  #     hydro 4 p 10.4
  #     hydro 4 d 17.6
  #     hydro 4 s 11.2
  ################################################################################
  #
  # For methods that use the localized form of the "resolution of identity" for
  # the two-electron Coulomb operator (RI_method LVL), particularly Hartree-Fock and
  # hybrid density functional calculations, the highest accuracy can be obtained by
  # uncommenting the line beginning with "for_aux"  below, thus adding an extra g radial
  # function to the construction of the product basis set for the expansion.
  # See Ref. New J. Phys. 17, 093020 (2015) for more information, particularly Figs. 1 and 6.
  #
  ################################################################################
  #
  # for_aux hydro 5 g 6.0
  ################################################################################
  #
  #  FHI-aims code project
  # Volker Blum, Fritz Haber Institute Berlin, 2009
  #
  #  Suggested "tight" defaults for S atom (to be pasted into control.in file)
  #
  #  Revised Jan 04, 2011, following tests (SiC) done by Lydia Nemec:
  #     d and g functions of tier 2 now enabled by default.
  #
  ################################################################################
    species        S
  #     global species definitions
      nucleus             16
      mass                32.065
  #
      l_hartree           6
  #
      cut_pot             4.0          2.0  1.0
      basis_dep_cutoff    1e-4
  #
      radial_base         44 7.0
      radial_multiplier   2
      angular_grids       specified
        division   0.4665  110
        division   0.5810  194
        division   0.7139  302
        division   0.8274  434
  #      division   0.9105  590
  #      division   1.0975  770
  #      division   1.2028  974
  #      outer_grid  974
        outer_grid  434
  ################################################################################
  #
  #  Definition of "minimal" basis
  #
  ################################################################################
  #     valence basis states
      valence      3  s   2.
      valence      3  p   4.
  #     ion occupancy
      ion_occ      3  s   1.
      ion_occ      3  p   3.
  ################################################################################
  #
  #  Suggested additional basis functions. For production calculations,
  #  uncomment them one after another (the most important basis functions are
  #  listed first).
  #
  #  Constructed for dimers: 1.6 A, 1.9 A, 2.5 A, 3.25 A, 4.0 A
  #
  ################################################################################
  #  "First tier" - improvements: -652.81 meV to -45.53 meV
       ionic 3 d auto
       hydro 2 p 1.8
       hydro 4 f 7
       ionic 3 s auto
  #  "Second tier" - improvements: -30.20 meV to -1.74 meV
       hydro 4 d 6.2
       hydro 5 g 10.8
  #     hydro 4 p 4.9
  #     hydro 5 f 10
  #     hydro 1 s 0.8
  #  "Third tier" - improvements: -1.04 meV to -0.20 meV
  #     hydro 3 d 3.9
  #     hydro 3 d 2.7
  #     hydro 5 g 12
  #     hydro 4 p 10.4
  #     hydro 5 f 12.4
  #     hydro 2 s 1.9
  #  "Fourth tier" - improvements: -0.35 meV to -0.06 meV
  #     hydro 4 d 10.4
  #     hydro 4 p 7.2
  #     hydro 4 d 10
  #     hydro 5 g 19.2
  #     hydro 4 s 12
  
  ################################################################################
  #
  # For methods that use the localized form of the "resolution of identity" for
  # the two-electron Coulomb operator (RI_method LVL), particularly Hartree-Fock and
  # hybrid density functional calculations, the highest accuracy can be obtained by
  # uncommenting the line beginning with "for_aux"  below, thus adding an extra g radial
  # function to the construction of the product basis set for the expansion.
  # See Ref. New J. Phys. 17, 093020 (2015) for more information, particularly Figs. 1 and 6.
  #
  ################################################################################
  #
  # for_aux hydro 5 g 6.0
  ################################################################################
  #
  #  FHI-aims code project
  # Volker Blum, Fritz Haber Institute Berlin, 2009
  #
  #  Suggested "tight" defaults for Cl atom (to be pasted into control.in file)
  #
  #  Revised Jan 04, 2011, following tests (SiC) done by Lydia Nemec:
  #     d function of tier 2 now enabled by default.
  #
  ################################################################################
    species        Cl
  #     global species definitions
      nucleus             17
      mass                35.453
  #
      l_hartree           6
  #
      cut_pot             4.0          2.0  1.0
      basis_dep_cutoff    1e-4
  #
      radial_base         45 7.0
      radial_multiplier   2
      angular_grids       specified
        division   0.4412  110
        division   0.5489  194
        division   0.6734  302
        division   0.7794  434
  #      division   0.9402  590
  #      division   1.0779  770
  #      division   1.1792  974
  #      outer_grid  974
        outer_grid  434
  ################################################################################
  #
  #  Definition of "minimal" basis
  #
  ################################################################################
  #     valence basis states
      valence      3  s   2.
      valence      3  p   5.
  #     ion occupancy
      ion_occ      3  s   1.
      ion_occ      3  p   4.
  ################################################################################
  #
  #  Suggested additional basis functions. For production calculations,
  #  uncomment them one after another (the most important basis functions are
  #  listed first).
  #
  #  Constructed for dimers: 1.65 A, 2.0 A, 2.5 A, 3.25 A, 4.0 A
  #
  ################################################################################
  #  "First tier" - improvements: -429.57 meV to -15.03 meV
       ionic 3 d auto
       hydro 2 p 1.9
       hydro 4 f 7.4
       ionic 3 s auto
       hydro 5 g 10.4
  #  "Second tier" - improvements: -7.84 meV to -0.48 meV
       hydro 3 d 3.3
  #     hydro 5 f 9.8
  #     hydro 1 s 0.75
  #     hydro 5 g 11.2
  #     hydro 4 p 10.4
  #  "Third tier" - improvements: -1.00 meV to -0.12 meV
  #     hydro 4 d 12.8
  #     hydro 4 f 4.6
  #     hydro 4 d 10.8
  #     hydro 2 s 1.8
  #     hydro 3 p 3
  #  Further functions that fell out - improvements: -0.10 meV and below
  #     hydro 5 f 14.4
  #     hydro 4 s 12.8
  #     hydro 3 d 11.6
  #     hydro 4 s 4.1
  ################################################################################
  #
  # For methods that use the localized form of the "resolution of identity" for
  # the two-electron Coulomb operator (RI_method LVL), particularly Hartree-Fock and
  # hybrid density functional calculations, the highest accuracy can be obtained by
  # uncommenting the line beginning with "for_aux"  below, thus adding an extra g radial
  # function to the construction of the product basis set for the expansion.
  # See Ref. New J. Phys. 17, 093020 (2015) for more information, particularly Figs. 1 and 6.
  #
  ################################################################################
  #
  # for_aux hydro 5 g 6.0
  
  
  -----------------------------------------------------------------------
  Completed first pass over input file control.in .
  -----------------------------------------------------------------------
  
  
  -----------------------------------------------------------------------
  Parsing geometry.in (first pass over file, find array dimensions only).
  The contents of geometry.in will be repeated verbatim below
  unless switched off by setting 'verbatim_writeout .false.' .
  in the first line of geometry.in .
  -----------------------------------------------------------------------
  
  #=======================================================
  # FHI-aims file: ./geo/geometry.in.2
  # Created using the Atomic Simulation Environment (ASE)
  # Tue Feb 22 23:54:07 2022
  #=======================================================
  lattice_vector 7.0506416578000000 0.0000000000000000 0.0000000000000000
  lattice_vector 3.5253208289000009 6.1060347886356281 0.0000000000000000
  lattice_vector 3.5253208289000009 2.0353449295452100 5.7568248069402932
  atom 1.9256218950867319 1.1117583194857619 2.7453549117073353 Li
  atom 5.1250197627132685 2.9589315396046576 0.1330574917628110 Li
  atom 5.1250197627132685 1.1117583194857619 2.7453549117073353 Li
  atom 1.9256218950867319 2.9589315396046576 0.1330574917628110 Li
  atom 3.5253208289000000 0.1881717094263137 0.1330574917628110 Li
  atom 3.5253208289000009 3.8825181496641052 2.7453549117073353 Li
  atom 7.0506416578000008 4.0706898590904190 2.8784124034701466 P
  atom 5.4216284826853478 5.0112010135494129 3.5434542185696891 S
  atom 7.0506416225467934 4.0706898387369712 0.8832869006032701 S
  atom 7.0506416225467934 2.1896674891120838 3.5434542185696891 S
  atom 8.6796547624082372 5.0112010135494129 3.5434542185696891 S
  atom 3.5253208289000004 2.0353449295452095 1.4392062017350733 S
  atom 0.0000000000000000 0.0000000000000000 0.0000000000000000 Cl
  
  -----------------------------------------------------------------------
  Completed first pass over input file geometry.in .
  -----------------------------------------------------------------------
  

  Basic array size parameters:
  | Number of species                 :        4
  | Number of atoms                   :       13
  | Number of lattice vectors         :        3
  | Max. basis fn. angular momentum   :        4
  | Max. atomic/ionic basis occupied n:        3
  | Max. number of basis fn. types    :        3
  | Max. radial fns per species/type  :        8
  | Max. logarithmic grid size        :     1362
  | Max. radial integration grid size :       91
  | Max. angular integration grid size:      434
  | Max. angular grid division number :        8
  | Radial grid for Hartree potential :     1362
  | Number of spin channels           :        1

------------------------------------------------------------
          Reading file control.in.
------------------------------------------------------------
  XC: Using PBE gradient-corrected functionals.
  Convergence accuracy of total energy:  0.1000E-05
  Convergence accuracy of sum of eigenvalues:  0.1000E-02
  Convergence accuracy of self-consistent charge density:  0.1000E-05
  Convergence accuracy of forces:  0.1000E-03
  Using the default MBD implementation with analytical forces
  Found k-point grid:         3         3         3
 
  Reading configuration options for species Li                  .
  | Found nuclear charge :   3.0000
  | Found atomic mass :    6.94100000000000      amu
  | Found l_max for Hartree potential  :   6
  | Found cutoff potl. onset [A], width [A], scale factor :    5.00000    2.00000    1.00000
  | Threshold for basis-dependent cutoff potential is   0.100000E-03
  | Found data for basic radial integration grid :    29 points, outermost radius =    7.000 A
  | Found multiplier for basic radial grid :   2
  | Found angular grid specification: user-specified.
  | Specified grid contains     5 separate shells.
  | Check grid settings after all constraints further below.
  | Found free-atom valence shell :  2 s   1.000
  | Found free-ion valence shell :  1 s   2.000
  | Found hydrogenic basis function :  2 p   1.600
  | Found hydrogenic basis function :  2 s   2.000
  | Found hydrogenic basis function :  3 d   2.600
  | Found hydrogenic basis function :  3 p   4.600
  | Found hydrogenic basis function :  2 p   1.800
  | Found hydrogenic basis function :  3 s   6.200
  | Found hydrogenic basis function :  4 d   4.700
  | Found hydrogenic basis function :  4 f   4.100
  Species Li                  : Missing cutoff potential type.
  Defaulting to exp(1/x)/(1-x)^2 type cutoff potential.
  Species Li: No 'logarithmic' tag. Using default grid for free atom:
  | Default logarithmic grid data [bohr] : 0.1000E-03 0.1000E+03 0.1012E+01
  Species Li: On-site basis accuracy parameter (for Gram-Schmidt orthonormalisation) not specified.
  Using default value basis_acc =  0.1000000E-03.
  Species Li                  : Using default innermost maximum threshold i_radial=  2 for radial functions.
  Species Li                  : Default cutoff onset for free atom density etc. : 0.50000000E+01 AA.
  Species Li                  : Basic radial grid will be enhanced according to radial_multiplier =   2, to contain    59 grid points.
 
  Reading configuration options for species P                   .
  | Found nuclear charge :  15.0000
  | Found atomic mass :    30.9737620000000      amu
  | Found l_max for Hartree potential  :   6
  | Found cutoff potl. onset [A], width [A], scale factor :    4.00000    2.00000    1.00000
  | Threshold for basis-dependent cutoff potential is   0.100000E-03
  | Found data for basic radial integration grid :    43 points, outermost radius =    7.000 A
  | Found multiplier for basic radial grid :   2
  | Found angular grid specification: user-specified.
  | Specified grid contains     6 separate shells.
  | Check grid settings after all constraints further below.
  | Found free-atom valence shell :  3 s   2.000
  | Found free-atom valence shell :  3 p   3.000
  | Found free-ion valence shell :  3 s   1.000
  | Found free-ion valence shell :  3 p   2.000
  | Found ionic basis function :  3 d , default cutoff radius.
  | Found ionic basis function :  3 p , default cutoff radius.
  | Found hydrogenic basis function :  4 f   6.200
  | Found hydrogenic basis function :  5 g   8.600
  | Found ionic basis function :  3 s , default cutoff radius.
  | Found hydrogenic basis function :  4 d   6.200
  Species P                   : Missing cutoff potential type.
  Defaulting to exp(1/x)/(1-x)^2 type cutoff potential.
  Species P : No 'logarithmic' tag. Using default grid for free atom:
  | Default logarithmic grid data [bohr] : 0.1000E-03 0.1000E+03 0.1012E+01
  | Will include ionic basis functions of  2.0-fold positive P                    ion.
  Species P : On-site basis accuracy parameter (for Gram-Schmidt orthonormalisation) not specified.
  Using default value basis_acc =  0.1000000E-03.
  Species P                   : Using default innermost maximum threshold i_radial=  2 for radial functions.
  Species P                   : Default cutoff onset for free atom density etc. : 0.40000000E+01 AA.
  Species P                   : Basic radial grid will be enhanced according to radial_multiplier =   2, to contain    87 grid points.
 
  Reading configuration options for species S                   .
  | Found nuclear charge :  16.0000
  | Found atomic mass :    32.0650000000000      amu
  | Found l_max for Hartree potential  :   6
  | Found cutoff potl. onset [A], width [A], scale factor :    4.00000    2.00000    1.00000
  | Threshold for basis-dependent cutoff potential is   0.100000E-03
  | Found data for basic radial integration grid :    44 points, outermost radius =    7.000 A
  | Found multiplier for basic radial grid :   2
  | Found angular grid specification: user-specified.
  | Specified grid contains     5 separate shells.
  | Check grid settings after all constraints further below.
  | Found free-atom valence shell :  3 s   2.000
  | Found free-atom valence shell :  3 p   4.000
  | Found free-ion valence shell :  3 s   1.000
  | Found free-ion valence shell :  3 p   3.000
  | Found ionic basis function :  3 d , default cutoff radius.
  | Found hydrogenic basis function :  2 p   1.800
  | Found hydrogenic basis function :  4 f   7.000
  | Found ionic basis function :  3 s , default cutoff radius.
  | Found hydrogenic basis function :  4 d   6.200
  | Found hydrogenic basis function :  5 g  10.800
  Species S                   : Missing cutoff potential type.
  Defaulting to exp(1/x)/(1-x)^2 type cutoff potential.
  Species S : No 'logarithmic' tag. Using default grid for free atom:
  | Default logarithmic grid data [bohr] : 0.1000E-03 0.1000E+03 0.1012E+01
  | Will include ionic basis functions of  2.0-fold positive S                    ion.
  Species S : On-site basis accuracy parameter (for Gram-Schmidt orthonormalisation) not specified.
  Using default value basis_acc =  0.1000000E-03.
  Species S                   : Using default innermost maximum threshold i_radial=  2 for radial functions.
  Species S                   : Default cutoff onset for free atom density etc. : 0.40000000E+01 AA.
  Species S                   : Basic radial grid will be enhanced according to radial_multiplier =   2, to contain    89 grid points.
 
  Reading configuration options for species Cl                  .
  | Found nuclear charge :  17.0000
  | Found atomic mass :    35.4530000000000      amu
  | Found l_max for Hartree potential  :   6
  | Found cutoff potl. onset [A], width [A], scale factor :    4.00000    2.00000    1.00000
  | Threshold for basis-dependent cutoff potential is   0.100000E-03
  | Found data for basic radial integration grid :    45 points, outermost radius =    7.000 A
  | Found multiplier for basic radial grid :   2
  | Found angular grid specification: user-specified.
  | Specified grid contains     5 separate shells.
  | Check grid settings after all constraints further below.
  | Found free-atom valence shell :  3 s   2.000
  | Found free-atom valence shell :  3 p   5.000
  | Found free-ion valence shell :  3 s   1.000
  | Found free-ion valence shell :  3 p   4.000
  | Found ionic basis function :  3 d , default cutoff radius.
  | Found hydrogenic basis function :  2 p   1.900
  | Found hydrogenic basis function :  4 f   7.400
  | Found ionic basis function :  3 s , default cutoff radius.
  | Found hydrogenic basis function :  5 g  10.400
  | Found hydrogenic basis function :  3 d   3.300
  Species Cl                  : Missing cutoff potential type.
  Defaulting to exp(1/x)/(1-x)^2 type cutoff potential.
  Species Cl: No 'logarithmic' tag. Using default grid for free atom:
  | Default logarithmic grid data [bohr] : 0.1000E-03 0.1000E+03 0.1012E+01
  | Will include ionic basis functions of  2.0-fold positive Cl                   ion.
  Species Cl: On-site basis accuracy parameter (for Gram-Schmidt orthonormalisation) not specified.
  Using default value basis_acc =  0.1000000E-03.
  Species Cl                  : Using default innermost maximum threshold i_radial=  2 for radial functions.
  Species Cl                  : Default cutoff onset for free atom density etc. : 0.40000000E+01 AA.
  Species Cl                  : Basic radial grid will be enhanced according to radial_multiplier =   2, to contain    91 grid points.
  | MBD: Using the same k-grid sampling as DFT
 
  Finished reading input file 'control.in'. Consistency checks are next.
 
  MPI_IN_PLACE appears to work with this MPI implementation.
  | Keeping use_mpi_in_place .true. (see manual).
  Target number of points in a grid batch is not set. Defaulting to  100
  Method for grid partitioning is not set. Defaulting to parallel hash+maxmin partitioning.
  Batch size limit is not set. Defaulting to    200
  By default, will store active basis functions for each batch.
  If in need of memory, prune_basis_once .false. can be used to disable this option.
  communication_type for Hartree potential was not specified.
  Defaulting to calc_hartree .
  Defaulting to Pulay charge density mixer.
  Pulay mixer: Number of relevant iterations not set.
  Defaulting to    8 iterations.
  Pulay mixer: Number of initial linear mixing iterations not set.
  Defaulting to    0 iterations.
  Work space size for distributed Hartree potential not set.
  Defaulting to   0.200000E+03 MB.
  Mixing parameter for charge density mixing has not been set.
  Using default: charge_mix_param =     0.0500.
  The mixing parameter will be adjusted in iteration number     2 of the first full s.c.f. cycle only.
  Algorithm-dependent basis array size parameters:
  | n_max_pulay                         :        8
  Maximum number of self-consistency iterations not provided.
  Presetting  1000 iterations.
  Presetting      1001 iterations before the initial mixing cycle
  is restarted anyway using the sc_init_iter criterion / keyword.
  Presetting a factor      1.000 between actual scf density residual
  and density convergence criterion sc_accuracy_rho below which sc_init_iter
  takes no effect.
  Geometry relaxation not requested: no relaxation will be performed.
  Handling of forces: Unphysical translation and rotation will be removed from forces.
  No accuracy limit for integral partition fn. given. Defaulting to  0.1000E-14.
  No threshold value for u(r) in integrations given. Defaulting to  0.1000E-05.
  No occupation type (smearing scheme) given. Defaulting to Gaussian broadening, width =  0.1000E-01 eV.
  The width will be adjusted in iteration number     2 of the first full s.c.f. cycle only.
  S.C.F. convergence parameters will be adjusted in iteration number     2 of the first full s.c.f. cycle only.
  No accuracy for occupation numbers given. Defaulting to  0.1000E-12.
  No threshold value for occupation numbers given. Defaulting to  0.0000E+00.
  No accuracy for fermi level given. Defaulting to  0.1000E-19.
  Maximum # of iterations to find E_F not set. Defaulting to  200.
  Preferred method for the eigenvalue solver ('KS_method') not specified in 'control.in'.
  Defaulting to serial version, 'lapack_fast'.
  Will not use alltoall communication since running on < 1024 CPUs.
  Threshold for basis singularities not set.
  Default threshold for basis singularities:  0.1000E-04
  partition_type (choice of integration weights) for integrals was not specified.
  | Using a version of the partition function of Stratmann and coworkers ('stratmann_smoother').
  | At each grid point, the set of atoms used to build the partition table is smoothly restricted to
  | only those atoms whose free-atom density would be non-zero at that grid point.
  Partitioning for Hartree potential was not defined. Using partition_type for integrals.
  | Adjusted default value of keyword multip_moments_threshold to:       0.10000000E-11
  | This value may affect high angular momentum components of the Hartree potential in periodic systems.
  Spin handling was not defined in control.in. Defaulting to unpolarized case.
  Angular momentum expansion for Kerker preconditioner not set explicitly.
  | Using default value of   0
  No explicit requirement for turning off preconditioner.
  | By default, it will be turned off when the charge convergence reaches
  | sc_accuracy_rho  =   0.100000E-05
  | sc_accuracy_eev  =   0.100000E-02
  | sc_accuracy_etot =   0.100000E-05
  No special mixing parameter while Kerker preconditioner is on.
  Using default: charge_mix_param =     0.0500.
  No q(lm)/r^(l+1) cutoff set for long-range Hartree potential.
  | Using default value of  0.100000E-09 .
  | Verify using the multipole_threshold keyword.
  Defaulting to new monopole extrapolation.
  Density update method: automatic selection selected.
  Using density matrix based charge density update.
  Using density matrix based charge density update.
  Using packed matrix style: index .
  Defaulting to use time-reversal symmetry for k-point grid.
------------------------------------------------------------


------------------------------------------------------------
          Reading geometry description geometry.in.
------------------------------------------------------------
 * Warning! You did not set the 'relativistic' flag in input file 'control.in'.
 * Since you are not attempting to treat any elements beyond Ca(Z=20), FHI-aims
 * will default to 'relativistic none'.
 * You must ensure that this is really what you want!!
 * For example, DO NOT compute total-energy differences between results from
 * different settings of the 'relativistic' flag.
  Input structure read successfully.
  The structure contains       13 atoms,  and a total of        130.000 electrons.

  Input geometry:
  | Unit cell:
  |        7.05064166        0.00000000        0.00000000
  |        3.52532083        6.10603479        0.00000000
  |        3.52532083        2.03534493        5.75682481
  | Atomic structure:
  |       Atom                x [A]            y [A]            z [A]
  |    1: Species Li            1.92562190        1.11175832        2.74535491
  |    2: Species Li            5.12501976        2.95893154        0.13305749
  |    3: Species Li            5.12501976        1.11175832        2.74535491
  |    4: Species Li            1.92562190        2.95893154        0.13305749
  |    5: Species Li            3.52532083        0.18817171        0.13305749
  |    6: Species Li            3.52532083        3.88251815        2.74535491
  |    7: Species P             7.05064166        4.07068986        2.87841240
  |    8: Species S             5.42162848        5.01120101        3.54345422
  |    9: Species S             7.05064162        4.07068984        0.88328690
  |   10: Species S             7.05064162        2.18966749        3.54345422
  |   11: Species S             8.67965476        5.01120101        3.54345422
  |   12: Species S             3.52532083        2.03534493        1.43920620
  |   13: Species Cl            0.00000000        0.00000000        0.00000000

  Lattice parameters for 3D lattice (in Angstroms) :     7.050642    7.050642    7.050642
  Angle(s) between unit vectors (in degrees)      :    60.000000   60.000000   60.000000

  |

  | The smallest distance between any two atoms is         1.99512545 AA.
  |
  | The first atom of this pair is atom number                     11 .
  | The second atom of this pair is atom number                     7 .
  | Wigner-Seitz cell of the first atom image           1     0     0 .
  | (The Wigner-Seitz cell of the second atom is 0 0 0  by definition.)

  Symmetry information by spglib:
  | Precision set to  0.1E-04
  | Number of Operations  : 24
  | Space group           : 216
  | International         : F-43m
  | Schoenflies           : Td^2

  Quantities derived from the lattice vectors:
  | Reciprocal lattice vector 1:  0.891151 -0.514506 -0.363811
  | Reciprocal lattice vector 2: -0.000000  1.029012 -0.363811
  | Reciprocal lattice vector 3: -0.000000  0.000000  1.091432
  | Unit cell volume                               :   0.247840E+03  A^3

  Range separation radius for Ewald summation (hartree_convergence_parameter):      3.81927327 bohr.

  Fractional coordinates:
                         L1                L2                L3
       atom_frac         0.02311300        0.02311300        0.47688700  Li
       atom_frac         0.47688700        0.47688700        0.02311300  Li
       atom_frac         0.47688700        0.02311300        0.47688700  Li
       atom_frac         0.02311300        0.47688700        0.02311300  Li
       atom_frac         0.47688700        0.02311300        0.02311300  Li
       atom_frac         0.02311300        0.47688700        0.47688700  Li
       atom_frac         0.50000000        0.50000000        0.50000000  P
       atom_frac         0.15343300        0.61552233        0.61552233  S
       atom_frac         0.61552233        0.61552233        0.15343300  S
       atom_frac         0.61552233        0.15343300        0.61552233  S
       atom_frac         0.61552233        0.61552233        0.61552233  S
       atom_frac         0.25000000        0.25000000        0.25000000  S
       atom_frac         0.00000000        0.00000000        0.00000000  Cl

  Number of empty states per atom not set in control.in - providing a guess from actual geometry.
  | Total number of empty states used during s.c.f. cycle:       30
  If you use a very high smearing, use empty_states (per atom!) in control.in to increase this value.

  Structure-dependent array size parameters: 
  | Maximum number of distinct radial functions  :       43
  | Maximum number of basis functions            :      453
  | Number of Kohn-Sham states (occupied + empty):       95
------------------------------------------------------------

------------------------------------------------------------
          Preparing all fixed parts of the calculation.
------------------------------------------------------------
  Determining machine precision:
    2.225073858507201E-308
  Setting up grids for atomic and cluster calculations.

  Creating wave function, potential, and density for free atoms.

  Species: Li

  List of occupied orbitals and eigenvalues:
    n    l              occ      energy [Ha]    energy [eV]
    1    0           2.0000        -1.901473       -51.7417
    2    0           1.0000        -0.103132        -2.8064


  Species: P

  List of occupied orbitals and eigenvalues:
    n    l              occ      energy [Ha]    energy [eV]
    1    0           2.0000       -76.356288     -2077.7603
    2    0           2.0000        -6.358286      -173.0178
    3    0           2.0000        -0.509419       -13.8620
    2    1           6.0000        -4.573976      -124.4642
    3    1           3.0000        -0.201560        -5.4847


  Species: S

  List of occupied orbitals and eigenvalues:
    n    l              occ      energy [Ha]    energy [eV]
    1    0           2.0000       -88.108280     -2397.5483
    2    0           2.0000        -7.732485      -210.4116
    3    0           2.0000        -0.629532       -17.1304
    2    1           6.0000        -5.750324      -156.4743
    3    1           4.0000        -0.257562        -7.0086


  Species: Cl

  List of occupied orbitals and eigenvalues:
    n    l              occ      energy [Ha]    energy [eV]
    1    0           2.0000      -100.710795     -2740.4802
    2    0           2.0000        -9.222997      -250.9705
    3    0           2.0000        -0.754245       -20.5241
    2    1           6.0000        -7.039872      -191.5647
    3    1           5.0000        -0.316221        -8.6048

  Creating fixed part of basis set: Ionic, confined, hydrogenic.
 
  Li                   hydrogenic:
 
  List of hydrogenic basis orbitals: 
    n    l      effective z      eigenvalue [eV]  inner max. [A]     outer max. [A]     outer radius [A]   
    2    1         1.600000        -8.7048           1.319365           1.319365           6.386418
    2    0         2.000000       -13.6052           0.203259           1.385485           6.232164
    3    2         2.600000       -10.2084           1.835332           1.835332           6.386418
    3    1         4.600000       -31.9883           0.343834           1.385485           5.381805
    2    1         1.800000       -11.0199           1.181903           1.181903           6.386418
    3    0         6.200000       -58.1113           0.062858           1.111823           4.371906
    4    2         4.700000       -18.7772           0.761113           2.401695           6.386418
    4    3         4.100000       -14.2833           2.073992           2.073992           6.386418
 
 
  P                    ion:

  List of free ionic orbitals and eigenvalues:
    n    l      energy [Ha]    energy [eV]
    1    0       -77.297133     -2103.3620
    2    0        -7.273914      -197.9333
    3    0        -1.267536       -34.4914
    2    1        -5.491316      -149.4263
    3    1        -0.913470       -24.8568


  List of ionic basis orbitals and eigenvalues:
    n    l      energy [Ha]    energy [eV]    outer radius [A]
    3    2        -0.458060       -12.4644       5.404780
    3    1        -0.913461       -24.8565       4.724723
    3    0        -1.267529       -34.4912       4.232463

 
  P                    hydrogenic:
 
  List of hydrogenic basis orbitals: 
    n    l      effective z      eigenvalue [eV]  inner max. [A]     outer max. [A]     outer radius [A]   
    4    3         6.200000       -32.6870           1.357793           1.357793           5.339109
    5    4         8.600000       -40.2502           1.534356           1.534356           5.404780
    4    2         6.200000       -32.6848           0.577014           1.820771           5.404780
 
 
  S                    ion:

  List of free ionic orbitals and eigenvalues:
    n    l      energy [Ha]    energy [eV]
    1    0       -89.127201     -2425.2745
    2    0        -8.724378      -237.4024
    3    0        -1.464668       -39.8556
    2    1        -6.744348      -183.5230
    3    1        -1.048520       -28.5317


  List of ionic basis orbitals and eigenvalues:
    n    l      energy [Ha]    energy [eV]    outer radius [A]
    3    2        -0.496514       -13.5108       5.386362
    3    0        -1.464662       -39.8555       3.967934

 
  S                    hydrogenic:
 
  List of hydrogenic basis orbitals: 
    n    l      effective z      eigenvalue [eV]  inner max. [A]     outer max. [A]     outer radius [A]   
    2    1         1.800000       -11.0118           1.168531           1.168531           5.452614
    4    3         7.000000       -41.6672           1.212182           1.212182           5.066981
    4    2         6.200000       -32.6848           0.582121           1.814567           5.386362
    5    4        10.800000       -63.4785           1.227092           1.227092           4.766538
 
 
  Cl                   ion:

  List of free ionic orbitals and eigenvalues:
    n    l      energy [Ha]    energy [eV]
    1    0      -101.807232     -2770.3157
    2    0       -10.290876      -280.0290
    3    0        -1.664625       -45.2967
    2    1        -8.110237      -220.6908
    3    1        -1.183915       -32.2160


  List of ionic basis orbitals and eigenvalues:
    n    l      energy [Ha]    energy [eV]    outer radius [A]
    3    2        -0.529392       -14.4055       5.389057
    3    0        -1.664620       -45.2966       3.780461

 
  Cl                   hydrogenic:
 
  List of hydrogenic basis orbitals: 
    n    l      effective z      eigenvalue [eV]  inner max. [A]     outer max. [A]     outer radius [A]   
    2    1         1.900000       -12.2741           1.113321           1.113321           5.389057
    4    3         7.400000       -46.5653           1.140877           1.140877           4.886961
    5    4        10.400000       -58.8635           1.273568           1.273568           4.886961
    3    2         3.300000       -16.4532           1.439178           1.439178           5.455343
 

  Adding cutoff potential to free-atom effective potential.
  Creating atomic-like basis functions for current effective potential.

  Species Li                  :

  List of atomic basis orbitals and eigenvalues:
    n    l      energy [Ha]    energy [eV]    outer radius [A]
    1    0        -1.901473       -51.7417       4.318785
    2    0        -0.103132        -2.8064       6.464971


  Species P                   :

  List of atomic basis orbitals and eigenvalues:
    n    l      energy [Ha]    energy [eV]    outer radius [A]
    1    0       -76.356288     -2077.7603       0.736837
    2    0        -6.358286      -173.0178       2.532824
    3    0        -0.509419       -13.8620       5.274236
    2    1        -4.573976      -124.4642       2.862183
    3    1        -0.201560        -5.4847       5.404780


  Species S                   :

  List of atomic basis orbitals and eigenvalues:
    n    l      energy [Ha]    energy [eV]    outer radius [A]
    1    0       -88.108280     -2397.5483       0.682391
    2    0        -7.732485      -210.4116       2.317169
    3    0        -0.629532       -17.1304       5.256262
    2    1        -5.750324      -156.4743       2.555240
    3    1        -0.257562        -7.0086       5.386362


  Species Cl                  :

  List of atomic basis orbitals and eigenvalues:
    n    l      energy [Ha]    energy [eV]    outer radius [A]
    1    0      -100.710795     -2740.4802       0.642251
    2    0        -9.222997      -250.9705       2.128190
    3    0        -0.754245       -20.5241       5.194994
    2    1        -7.039872      -191.5647       2.346844
    3    1        -0.316221        -8.6048       5.323577

  Assembling full basis from fixed parts.
  | Species Li :   atomic orbital   1 s accepted.
  | Species Li :    hydro orbital   3 s accepted.
  | Species Li :    hydro orbital   2 s accepted.
  | Species Li :   atomic orbital   2 s accepted.
  | Species Li :    hydro orbital   3 p accepted.
  | Species Li :    hydro orbital   2 p accepted.
  | Species Li :    hydro orbital   2 p accepted.
  | Species Li :    hydro orbital   3 d accepted.
  | Species Li :    hydro orbital   4 d accepted.
  | Species Li :    hydro orbital   4 f accepted.
  | Species P :   atomic orbital   1 s accepted.
  | Species P :   atomic orbital   2 s accepted.
  | Species P :    ionic orbital   3 s accepted.
  | Species P :   atomic orbital   3 s accepted.
  | Species P :   atomic orbital   2 p accepted.
  | Species P :    ionic orbital   3 p accepted.
  | Species P :   atomic orbital   3 p accepted.
  | Species P :    ionic orbital   3 d accepted.
  | Species P :    hydro orbital   4 d accepted.
  | Species P :    hydro orbital   4 f accepted.
  | Species P :    hydro orbital   5 g accepted.
  | Species S :   atomic orbital   1 s accepted.
  | Species S :   atomic orbital   2 s accepted.
  | Species S :    ionic orbital   3 s accepted.
  | Species S :   atomic orbital   3 s accepted.
  | Species S :   atomic orbital   2 p accepted.
  | Species S :   atomic orbital   3 p accepted.
  | Species S :    hydro orbital   2 p accepted.
  | Species S :    ionic orbital   3 d accepted.
  | Species S :    hydro orbital   4 d accepted.
  | Species S :    hydro orbital   4 f accepted.
  | Species S :    hydro orbital   5 g accepted.
  | Species Cl :   atomic orbital   1 s accepted.
  | Species Cl :   atomic orbital   2 s accepted.
  | Species Cl :    ionic orbital   3 s accepted.
  | Species Cl :   atomic orbital   3 s accepted.
  | Species Cl :   atomic orbital   2 p accepted.
  | Species Cl :   atomic orbital   3 p accepted.
  | Species Cl :    hydro orbital   2 p accepted.
  | Species Cl :    ionic orbital   3 d accepted.
  | Species Cl :    hydro orbital   3 d accepted.
  | Species Cl :    hydro orbital   4 f accepted.
  | Species Cl :    hydro orbital   5 g accepted.
 
  Basis size parameters after reduction:
  | Total number of radial functions:       43
  | Total number of basis functions :      453
 
  Per-task memory consumption for arrays in subroutine allocate_ext:
  |          11.258640MB.
  Testing on-site integration grid accuracy.
  |  Species  Function  <phi|h_atom|phi> (log., in eV)  <phi|h_atom|phi> (rad., in eV)
           1        1                -51.7417001117                -51.7417000312
           1        2                 33.5927188637                 33.5926505054
           1        3                 69.1469416012                 69.1473382425
           1        4                 48.8336153902                 48.8810182289 ***
           1        5                 17.1749490570                 17.1749098864
           1        6                 32.1201183828                 32.1217831653
           1        7                  6.0166019876                  6.0249480535
           1        8                  4.9175332206                  4.9194842525
           1        9                 28.8010599263                 28.8011051086
           1       10                  9.9331480983                  9.9353515081
           2       11              -2077.7602992527              -2077.7602630746
           2       12               -173.0177635265               -173.0177629291
           2       13                -13.5620523038                -13.5620521963
           2       14                  6.3015351439                  6.3015396353
           2       15               -124.4642131574               -124.4642129967
           2       16                 -4.8468074573                 -4.8468065719
           2       17                  5.8113348591                  5.8108493787
           2       18                  5.1218113540                  5.1217878152
           2       19                 22.1386653152                 22.1386624883
           2       20                 19.3047268689                 19.3047231214
           2       21                 30.3235883931                 30.3235836780
           3       22              -2397.5482725833              -2397.5482291499
           3       23               -210.4116306505               -210.4116300246
           3       24                -16.8591546483                -16.8591544436
           3       25                  7.5848976656                  7.5849001027
           3       26               -156.4742745766               -156.4742744285
           3       27                 -7.0089268331                 -7.0089287934
           3       28                  6.8790437028                  6.8789536772
           3       29                  6.0023049431                  6.0023019693
           3       30                 19.5634804122                 19.5634829634
           3       31                 24.6809503130                 24.6809503093
           3       32                 47.5107032033                 47.5107040524
           4       33              -2740.4801671239              -2740.4801157382
           4       34               -250.9705040601               -250.9705032686
           4       35                -20.2716828479                -20.2716826054
           4       36                  9.0161300765                  9.0161279813
           4       37               -191.5646602865               -191.5646600866
           4       38                 -8.6049187754                 -8.6049181478
           4       39                  7.6458046208                  7.6458222053
           4       40                  6.9765726558                  6.9765744583
           4       41                 16.6546700656                 16.6546956458
           4       42                 28.0343243807                 28.0343233726
           4       43                 45.0370063060                 45.0370052039
 * Note: Onsite integrals marked "***" above are less accurate than
 * onsite_accuracy_threshold =    0.03000 eV. Usually, this is harmless.
 * When in doubt, tighten the "radial" and/or "radial_multiplier" flags to check.

  Preparing densities etc. for the partition functions (integrals / Hartree potential).

  Preparations completed.
  max(cpu_time)          :      0.316 s.
  Wall clock time (cpu1) :      0.316 s.
------------------------------------------------------------

------------------------------------------------------------
          Begin self-consistency loop: Initialization.

          Date     :  20220223, Time     :  035015.759
------------------------------------------------------------

  Initializing index lists of integration centers etc. from given atomic structure:
  Mapping all atomic coordinates to central unit cell.

  Initializing the k-points
          Using symmetry for reducing the k-points
  | k-points reduced from:       27 to       14
  | Number of k-points                             :        14
  The eigenvectors in the calculations are COMPLEX.
  | K-points in task   0:        14
  | Number of basis functions in the Hamiltonian integrals :      8707
  | Number of basis functions in a single unit cell        :       453
  | Number of centers in hartree potential         :      1693
  | Number of centers in hartree multipole         :      1200
  | Number of centers in electron density summation:       861
  | Number of centers in basis integrals           :       921
  | Number of centers in integrals                 :       317
  | Number of centers in hamiltonian               :      1123
  | Consuming         35 KiB for k_phase.
  | Number of super-cells (origin) [n_cells]                     :         729
  | Number of super-cells (after PM_index) [n_cells]             :         160
  | Number of super-cells in hamiltonian [n_cells_in_hamiltonian]:         160
  | Size of matrix packed + index [n_hamiltonian_matrix_size] :     2468921
  Partitioning the integration grid into batches with parallel hashing+maxmin method.
  | Number of batches:     4089
  | Maximal batch size:     133
  | Minimal batch size:      63
  | Average batch size:      66.063
  | Standard deviation of batch sizes:       3.056

  Integration load balanced across     1 MPI tasks.
  Work distribution over tasks is as follows:
  Task     0 has     270130 integration points.
  Initializing partition tables, free-atom densities, potentials, etc. across the integration grid (initialize_grid_storage).
  | initialize_grid_storage: Actual outermost partition radius vs. multipole_radius_free
  | (-- VB: in principle, multipole_radius_free should be larger, hence this output)
  | Species        1: Confinement radius =              7.000000000000000 AA, multipole_radius_free =              7.042572113910259 AA.
  | Species        1: outer_partition_radius set to              7.042572113910259 AA .
  | Species        2: Confinement radius =              6.000000000000000 AA, multipole_radius_free =              6.033387558927091 AA.
  | Species        2: outer_partition_radius set to              6.033387558927091 AA .
  | Species        3: Confinement radius =              6.000000000000000 AA, multipole_radius_free =              6.012827091137924 AA.
  | Species        3: outer_partition_radius set to              6.012827091137924 AA .
  | Species        4: Confinement radius =              6.000000000000000 AA, multipole_radius_free =              6.015836048499353 AA.
  | Species        4: outer_partition_radius set to              6.015836048499353 AA .
  | Original list of interatomic distances with         921 x        921 entries is created.
  | Net number of integration points:   270130
  | of which are non-zero points    :   213631
  | Numerical average free-atom electrostatic potential    :    -10.68707828 eV
  Renormalizing the initial density to the exact electron count on the 3D integration grid.
  | Initial density: Formal number of electrons (from input files) :     130.0000000000
  | Integrated number of electrons on 3D grid     :     130.0000386415
  | Charge integration error                      :       0.0000386415
  | Normalization factor for density and gradient :       0.9999997028
  Obtaining max. number of non-zero basis functions in each batch (get_n_compute_maxes).
  | Maximal number of non-zero basis functions:     1857 in task     0
  Allocating        9.640 MB for KS_eigenvector_complex
  Integrating Hamiltonian matrix: batch-based integration.
  Time summed over all CPUs for integration: real work      123.427 s, elapsed      123.427 s
  Integrating overlap matrix.
  Time summed over all CPUs for integration: real work       98.461 s, elapsed       98.461 s
  Decreasing sparse matrix size:
   Tolerance:  9.999999824516700E-014
   Hamiltonian matrix
  | Array has  2189222 nonzero elements out of  2468921 elements
  | Sparsity factor is 0.113
   Overlap matrix
  | Array has  2040013 nonzero elements out of  2468921 elements
  | Sparsity factor is 0.174
  New size of hamiltonian matrix:     2189562

  Updating Kohn-Sham eigenvalues and eigenvectors using ELSI and the ELPA eigensolver.
  Overlap matrix is nonsingular
  | Lowest eigenvalue of overlap  :  0.22E-04
  | Highest eigenvalue of overlap :  0.15E+02
  Finished singularity check of overlap matrix
  | Time :     0.030 s
  Finished Cholesky decomposition
  | Time :     0.007 s
  Finished transformation to standard eigenproblem
  | Time :     0.013 s
  Starting LAPACK eigensolver
  Finished solving standard eigenproblem
  | Time :     0.030 s
  Finished back-transformation of eigenvectors
  | Time :     0.002 s

  Obtaining occupation numbers and chemical potential using ELSI.
  | Chemical potential (Fermi level):    -9.11346452eV
  Writing Kohn-Sham eigenvalues.
  K-point:       1 at    0.000000    0.000000    0.000000 (in units of recip. lattice)

  State    Occupation    Eigenvalue [Ha]    Eigenvalue [eV]
      1       2.00000        -100.721623        -2740.77482
      2       2.00000         -88.207490        -2400.24793
      3       2.00000         -88.165587        -2399.10768
      4       2.00000         -88.165587        -2399.10768
      5       2.00000         -88.165587        -2399.10768
      6       2.00000         -88.165587        -2399.10768
      7       2.00000         -76.402066        -2079.00600
      8       2.00000          -9.234480         -251.28297
      9       2.00000          -7.835607         -213.21772
     10       2.00000          -7.793481         -212.07140
     11       2.00000          -7.793481         -212.07140
     12       2.00000          -7.793481         -212.07140
     13       2.00000          -7.793481         -212.07140
     14       2.00000          -7.051270         -191.87483
     15       2.00000          -7.051270         -191.87483
     16       2.00000          -7.051270         -191.87483
     17       2.00000          -6.411643         -174.46968
     18       2.00000          -5.853011         -159.26853
     19       2.00000          -5.853011         -159.26853
     20       2.00000          -5.853011         -159.26853
     21       2.00000          -5.811992         -158.15235
     22       2.00000          -5.811992         -158.15235
     23       2.00000          -5.811992         -158.15235
     24       2.00000          -5.811992         -158.15234
     25       2.00000          -5.810373         -158.10829
     26       2.00000          -5.810373         -158.10829
     27       2.00000          -5.810373         -158.10829
     28       2.00000          -5.810373         -158.10829
     29       2.00000          -5.810373         -158.10829
     30       2.00000          -5.810373         -158.10829
     31       2.00000          -5.810373         -158.10829
     32       2.00000          -5.810373         -158.10829
     33       2.00000          -4.626768         -125.90077
     34       2.00000          -4.626768         -125.90077
     35       2.00000          -4.626768         -125.90077
     36       2.00000          -1.926127          -52.41257
     37       2.00000          -1.925923          -52.40703
     38       2.00000          -1.925923          -52.40703
     39       2.00000          -1.925923          -52.40702
     40       2.00000          -1.925829          -52.40447
     41       2.00000          -1.925829          -52.40446
     42       2.00000          -0.857208          -23.32583
     43       2.00000          -0.778982          -21.19719
     44       2.00000          -0.774615          -21.07836
     45       2.00000          -0.754186          -20.52244
     46       2.00000          -0.754186          -20.52244
     47       2.00000          -0.754186          -20.52244
     48       2.00000          -0.591073          -16.08391
     49       2.00000          -0.473942          -12.89662
     50       2.00000          -0.473942          -12.89662
     51       2.00000          -0.473942          -12.89662
     52       2.00000          -0.424524          -11.55188
     53       2.00000          -0.424524          -11.55188
     54       2.00000          -0.424523          -11.55187
     55       2.00000          -0.394560          -10.73652
     56       2.00000          -0.394560          -10.73652
     57       2.00000          -0.373324          -10.15866
     58       2.00000          -0.373323          -10.15865
     59       2.00000          -0.373323          -10.15865
     60       2.00000          -0.340163           -9.25631
     61       2.00000          -0.340163           -9.25631
     62       2.00000          -0.340163           -9.25631
     63       2.00000          -0.337033           -9.17114
     64       2.00000          -0.337033           -9.17114
     65       2.00000          -0.337033           -9.17113
     66       0.00000          -0.204429           -5.56280
     67       0.00000          -0.146730           -3.99273
     68       0.00000          -0.146617           -3.98964
     69       0.00000          -0.146616           -3.98963
     70       0.00000          -0.146616           -3.98963
     71       0.00000          -0.098763           -2.68748
     72       0.00000          -0.098763           -2.68747
     73       0.00000          -0.098763           -2.68747
     74       0.00000          -0.047711           -1.29829
     75       0.00000          -0.047711           -1.29828
     76       0.00000          -0.044723           -1.21698
     77       0.00000          -0.044722           -1.21696
     78       0.00000          -0.044722           -1.21695
     79       0.00000          -0.013993           -0.38076
     80       0.00000          -0.013992           -0.38075
     81       0.00000           0.037510            1.02070
     82       0.00000           0.037513            1.02079
     83       0.00000           0.037515            1.02083
     84       0.00000           0.059387            1.61600
     85       0.00000           0.064767            1.76241
     86       0.00000           0.064770            1.76249
     87       0.00000           0.070246            1.91150
     88       0.00000           0.070247            1.91151
     89       0.00000           0.070247            1.91153
     90       0.00000           0.075160            2.04520
     91       0.00000           0.075161            2.04522
     92       0.00000           0.075161            2.04524
     93       0.00000           0.090232            2.45533
     94       0.00000           0.090232            2.45535
     95       0.00000           0.090232            2.45535

  What follows are estimated values for band gap, HOMO, LUMO, etc.
  | They are estimated on a discrete k-point grid and not necessarily exact.
  | For converged numbers, create a DOS and/or band structure plot on a denser k-grid.

  Highest occupied state (VBM) at     -9.16244062 eV (relative to internal zero)
  | Occupation number:      2.00000000
  | K-point:       2 at    0.000000    0.000000    0.333333 (in units of recip. lattice)

  Lowest unoccupied state (CBM) at    -5.56280058 eV (relative to internal zero)
  | Occupation number:      0.00000000
  | K-point:       1 at    0.000000    0.000000    0.000000 (in units of recip. lattice)

  ESTIMATED overall HOMO-LUMO gap:      3.59964005 eV between HOMO at k-point 2 and LUMO at k-point 1
  | This appears to be an indirect band gap.
  | Smallest direct gap :      3.60833319 eV for k_point 1 at    0.000000    0.000000    0.000000 (in units of recip. lattice)
  The gap value is above 0.2 eV. Unless you are using a very sparse k-point grid,
  this system is most likely an insulator or a semiconductor.
  Calculating total energy contributions from superposition of free atom densities.

  Total energy components:
  | Sum of eigenvalues            :       -1636.92912802 Ha      -44543.10790170 eV
  | XC energy correction          :        -190.24500362 Ha       -5176.82994258 eV
  | XC potential correction       :         245.78874842 Ha        6688.25213902 eV
  | Free-atom electrostatic energy:       -1255.93111553 Ha      -34175.62449033 eV
  | Hartree energy correction     :           0.00000000 Ha           0.00000000 eV
  | Entropy correction            :          -0.00000000 Ha          -0.00000000 eV
  | ---------------------------
  | Total energy                  :       -2837.31649875 Ha      -77207.31019559 eV
  | Total energy, T -> 0          :       -2837.31649875 Ha      -77207.31019559 eV  <-- do not rely on this value for anything but (periodic) metals
  | Electronic free energy        :       -2837.31649875 Ha      -77207.31019559 eV

  Derived energy quantities:
  | Kinetic energy                :        2833.46641183 Ha       77102.54400010 eV
  | Electrostatic energy          :       -5480.53790696 Ha     -149133.02425311 eV
  | Energy correction for multipole
  | error in Hartree potential    :           0.00000000 Ha           0.00000000 eV
  | Sum of eigenvalues per atom                           :       -3426.39291552 eV
  | Total energy (T->0) per atom                          :       -5939.02386120 eV  <-- do not rely on this value for anything but (periodic) metals
  | Electronic free energy per atom                       :       -5939.02386120 eV
  Initialize hartree_potential_storage
  Max. number of atoms included in rho_multipole:           13

  End scf initialization - timings             :  max(cpu_time)    wall_clock(cpu1)
  | Time for scf. initialization               :      192.159 s         192.160 s
  | Boundary condition initialization          :        0.496 s           0.496 s
  | Integration                                :      166.310 s         166.311 s
  | Solution of K.-S. eqns.                    :        1.306 s           1.306 s
  | Grid partitioning                          :        2.986 s           2.987 s
  | Preloading free-atom quantities on grid    :        0.014 s           0.014 s
  | Free-atom superposition energy             :        2.249 s           2.249 s
  | Total energy evaluation                    :        0.000 s           0.000 s

  Partial memory accounting:
  | Current value for overall tracked memory usage on task 0  :          53.432 MB
  | Peak value for overall tracked memory usage on task 0     :          92.579 MB after allocating wave
  | Largest tracked array allocation on task 0 so far         :          27.588 MB  when allocating hamiltonian_shell
  Note:  These values currently only include a subset of arrays which are explicitly tracked.
  The "true" memory usage will be greater.
------------------------------------------------------------

------------------------------------------------------------
          Begin self-consistency iteration #    1

  Date     :  20220223, Time     :  035327.919
------------------------------------------------------------
  Evaluating new KS density using the density matrix
  Evaluating density matrix
  Time summed over all CPUs for getting density from density matrix: real work      204.906 s, elapsed      204.906 s
  Integration grid: deviation in total charge (<rho> - N_e) =  -7.958079E-13
  Pulay mixing of updated and previous charge densities.

  Evaluating partitioned Hartree potential by multipole expansion.
  | Analytical far-field extrapolation by fixed multipoles:
  | Hartree multipole sum: apparent total charge =   0.124408E-02
  Summing up the Hartree potential.
  | Estimated reciprocal-space cutoff momentum G_max:         2.55393322 bohr^-1 .
  | Reciprocal lattice points for long-range Hartree potential:     458
  Time summed over all CPUs for potential: real work       24.167 s, elapsed       24.167 s
  | RMS charge density error from multipole expansion :   0.503950E-03
  | Average real-space part of the electrostatic potential :      0.01805548 eV

  Integrating Hamiltonian matrix: batch-based integration.
  Time summed over all CPUs for integration: real work      122.488 s, elapsed      122.488 s

  Updating Kohn-Sham eigenvalues and eigenvectors using ELSI and the ELPA eigensolver.
  Finished Cholesky decomposition
  | Time :     0.007 s
  Finished transformation to standard eigenproblem
  | Time :     0.014 s
  Starting LAPACK eigensolver
  Finished solving standard eigenproblem
  | Time :     0.031 s
  Finished back-transformation of eigenvectors
  | Time :     0.002 s

  Obtaining occupation numbers and chemical potential using ELSI.
  | Chemical potential (Fermi level):    -9.07785106eV
  Writing Kohn-Sham eigenvalues.
  K-point:       1 at    0.000000    0.000000    0.000000 (in units of recip. lattice)

  State    Occupation    Eigenvalue [Ha]    Eigenvalue [eV]
      1       2.00000        -100.715905        -2740.61921
      2       2.00000         -88.193180        -2399.85852
      3       2.00000         -88.160630        -2398.97279
      4       2.00000         -88.160629        -2398.97279
      5       2.00000         -88.160629        -2398.97278
      6       2.00000         -88.160629        -2398.97278
      7       2.00000         -76.410817        -2079.24411
      8       2.00000          -9.229962         -251.16004
      9       2.00000          -7.823953         -212.90060
     10       2.00000          -7.789818         -211.97172
     11       2.00000          -7.789818         -211.97172
     12       2.00000          -7.789818         -211.97172
     13       2.00000          -7.789817         -211.97172
     14       2.00000          -7.046635         -191.74868
     15       2.00000          -7.046635         -191.74868
     16       2.00000          -7.046635         -191.74868
     17       2.00000          -6.418466         -174.65536
     18       2.00000          -5.841116         -158.94485
     19       2.00000          -5.841116         -158.94485
     20       2.00000          -5.841116         -158.94485
     21       2.00000          -5.808406         -158.05478
     22       2.00000          -5.808406         -158.05478
     23       2.00000          -5.808406         -158.05478
     24       2.00000          -5.808406         -158.05477
     25       2.00000          -5.806490         -158.00263
     26       2.00000          -5.806490         -158.00263
     27       2.00000          -5.806490         -158.00262
     28       2.00000          -5.806490         -158.00262
     29       2.00000          -5.806490         -158.00262
     30       2.00000          -5.806490         -158.00262
     31       2.00000          -5.806490         -158.00262
     32       2.00000          -5.806490         -158.00262
     33       2.00000          -4.633734         -126.09032
     34       2.00000          -4.633734         -126.09032
     35       2.00000          -4.633734         -126.09031
     36       2.00000          -1.925947          -52.40769
     37       2.00000          -1.925745          -52.40218
     38       2.00000          -1.925745          -52.40218
     39       2.00000          -1.925744          -52.40217
     40       2.00000          -1.925651          -52.39964
     41       2.00000          -1.925651          -52.39963
     42       2.00000          -0.857667          -23.33831
     43       2.00000          -0.774773          -21.08265
     44       2.00000          -0.769916          -20.95047
     45       2.00000          -0.753196          -20.49550
     46       2.00000          -0.753196          -20.49550
     47       2.00000          -0.753196          -20.49550
     48       2.00000          -0.591098          -16.08458
     49       2.00000          -0.473904          -12.89559
     50       2.00000          -0.473904          -12.89559
     51       2.00000          -0.473904          -12.89559
     52       2.00000          -0.419560          -11.41681
     53       2.00000          -0.419560          -11.41681
     54       2.00000          -0.419560          -11.41680
     55       2.00000          -0.393652          -10.71181
     56       2.00000          -0.393652          -10.71181
     57       2.00000          -0.372281          -10.13029
     58       2.00000          -0.372281          -10.13028
     59       2.00000          -0.372281          -10.13027
     60       2.00000          -0.338376           -9.20768
     61       2.00000          -0.338376           -9.20768
     62       2.00000          -0.338376           -9.20768
     63       2.00000          -0.335723           -9.13550
     64       2.00000          -0.335723           -9.13550
     65       2.00000          -0.335723           -9.13550
     66       0.00000          -0.204823           -5.57351
     67       0.00000          -0.147114           -4.00318
     68       0.00000          -0.147114           -4.00317
     69       0.00000          -0.147114           -4.00317
     70       0.00000          -0.145713           -3.96504
     71       0.00000          -0.097262           -2.64662
     72       0.00000          -0.097261           -2.64661
     73       0.00000          -0.097261           -2.64661
     74       0.00000          -0.047324           -1.28775
     75       0.00000          -0.047324           -1.28774
     76       0.00000          -0.043594           -1.18626
     77       0.00000          -0.043593           -1.18624
     78       0.00000          -0.043593           -1.18622
     79       0.00000          -0.012191           -0.33173
     80       0.00000          -0.012190           -0.33172
     81       0.00000           0.038155            1.03824
     82       0.00000           0.038158            1.03834
     83       0.00000           0.038160            1.03838
     84       0.00000           0.060556            1.64782
     85       0.00000           0.066018            1.79643
     86       0.00000           0.066021            1.79651
     87       0.00000           0.070909            1.92954
     88       0.00000           0.070909            1.92954
     89       0.00000           0.070910            1.92956
     90       0.00000           0.075901            2.06537
     91       0.00000           0.075902            2.06539
     92       0.00000           0.075902            2.06541
     93       0.00000           0.091542            2.49099
     94       0.00000           0.091543            2.49101
     95       0.00000           0.091543            2.49101

  What follows are estimated values for band gap, HOMO, LUMO, etc.
  | They are estimated on a discrete k-point grid and not necessarily exact.
  | For converged numbers, create a DOS and/or band structure plot on a denser k-grid.

  Highest occupied state (VBM) at     -9.12673031 eV (relative to internal zero)
  | Occupation number:      2.00000000
  | K-point:       2 at    0.000000    0.000000    0.333333 (in units of recip. lattice)

  Lowest unoccupied state (CBM) at    -5.57350907 eV (relative to internal zero)
  | Occupation number:      0.00000000
  | K-point:       1 at    0.000000    0.000000    0.000000 (in units of recip. lattice)

  ESTIMATED overall HOMO-LUMO gap:      3.55322124 eV between HOMO at k-point 2 and LUMO at k-point 1
  | This appears to be an indirect band gap.
  | Smallest direct gap :      3.56198762 eV for k_point 1 at    0.000000    0.000000    0.000000 (in units of recip. lattice)
  The gap value is above 0.2 eV. Unless you are using a very sparse k-point grid,
  this system is most likely an insulator or a semiconductor.

  Total energy components:
  | Sum of eigenvalues            :       -1636.58779591 Ha      -44533.81978242 eV
  | XC energy correction          :        -190.27535827 Ha       -5177.65593484 eV
  | XC potential correction       :         245.82762789 Ha        6689.31010334 eV
  | Free-atom electrostatic energy:       -1255.93111553 Ha      -34175.62449033 eV
  | Hartree energy correction     :          -0.33890669 Ha          -9.22212025 eV
  | Entropy correction            :          -0.00000000 Ha          -0.00000000 eV
  | ---------------------------
  | Total energy                  :       -2837.30554851 Ha      -77207.01222450 eV
  | Total energy, T -> 0          :       -2837.30554851 Ha      -77207.01222450 eV  <-- do not rely on this value for anything but (periodic) metals
  | Electronic free energy        :       -2837.30554851 Ha      -77207.01222450 eV

  Derived energy quantities:
  | Kinetic energy                :        2833.65996797 Ha       77107.81093079 eV
  | Electrostatic energy          :       -5480.69015821 Ha     -149137.16722045 eV
  | Energy correction for multipole
  | error in Hartree potential    :          -0.00088131 Ha          -0.02398173 eV
  | Sum of eigenvalues per atom                           :       -3425.67844480 eV
  | Total energy (T->0) per atom                          :       -5939.00094035 eV  <-- do not rely on this value for anything but (periodic) metals
  | Electronic free energy per atom                       :       -5939.00094035 eV

  Self-consistency convergence accuracy:
  | Change of charge density      :  0.2846E+00
  | Change of sum of eigenvalues  :  0.9288E+01 eV
  | Change of total energy        :  0.2980E+00 eV

  End self-consistency iteration #     1       :  max(cpu_time)    wall_clock(cpu1)
  | Time for this iteration                    :      276.109 s         276.110 s
  | Charge density update                      :      153.666 s         153.667 s
  | Density mixing & preconditioning           :       11.528 s          11.527 s
  | Hartree multipole update                   :        0.022 s           0.022 s
  | Hartree multipole summation                :       18.175 s          18.176 s
  | Integration                                :       91.799 s          91.799 s
  | Solution of K.-S. eqns.                    :        0.919 s           0.918 s
  | Total energy evaluation                    :        0.000 s           0.000 s

  Partial memory accounting:
  | Current value for overall tracked memory usage on task 0  :          53.432 MB
  | Peak value for overall tracked memory usage on task 0     :          92.875 MB after allocating gradient_basis_wave
  | Largest tracked array allocation on task 0 so far         :          27.588 MB  when allocating hamiltonian_shell
  Note:  These values currently only include a subset of arrays which are explicitly tracked.
  The "true" memory usage will be greater.
------------------------------------------------------------

------------------------------------------------------------
          Begin self-consistency iteration #    2

  Date     :  20220223, Time     :  035804.031
------------------------------------------------------------
  Evaluating new KS density using the density matrix
  Evaluating density matrix
  Time summed over all CPUs for getting density from density matrix: real work      204.739 s, elapsed      204.739 s
  Integration grid: deviation in total charge (<rho> - N_e) =  -1.364242E-12
  Pulay mixing of updated and previous charge densities.

  Evaluating partitioned Hartree potential by multipole expansion.
  | Analytical far-field extrapolation by fixed multipoles:
  | Hartree multipole sum: apparent total charge =   0.162106E-01
  Summing up the Hartree potential.
  Time summed over all CPUs for potential: real work       27.603 s, elapsed       27.603 s
  | RMS charge density error from multipole expansion :   0.675022E-02
  | Average real-space part of the electrostatic potential :      0.23843730 eV

  Integrating Hamiltonian matrix: batch-based integration.
[...]
  |   Free atom volume        :     76.98066615
  |   Hirshfeld volume        :     75.92637308
  |   Hirshfeld dipole vector :      0.00000000       0.00001228       0.00001388
  |   Hirshfeld dipole moment :      0.00001854
  |   Hirshfeld second moments:     -0.07675469      -0.00000000      -0.00000000
  |                                 -0.00000000      -0.07674204      -0.00005311
  |                                 -0.00000000      -0.00005311      -0.07673562
  ----------------------------------------------------------------------
  | Atom    13: Cl
  |   Hirshfeld charge        :     -0.21742588
  |   Free atom volume        :     66.13469196
  |   Hirshfeld volume        :     63.47669567
  |   Hirshfeld dipole vector :      0.00000000      -0.00000141       0.00002916
  |   Hirshfeld dipole moment :      0.00002919
  |   Hirshfeld second moments:      0.00175431       0.00000000       0.00000000
  |                                  0.00000000       0.00180431      -0.00000401
  |                                  0.00000000      -0.00000401       0.00179638
  ----------------------------------------------------------------------

  | Many-Body Dispersion (MBD@rsSCS) energy
  | Total dynamic anisotropic polarizability, \alpha_{ij}(iu), (a.u.)
  | -------------------------------------------------------------------
  |      u            xx         yy         zz         yz         xz         xy
  |   0.000000    576.176    576.179    576.178      0.002     -0.000     -0.000
   Negative alpha! Aborting this iteration
  | --------------------------------------------------------------

  Total energy components:
  | Sum of eigenvalues            :       -1633.09639903 Ha      -44438.81403954 eV
  | XC energy correction          :        -190.67178727 Ha       -5188.44331677 eV
  | XC potential correction       :         246.33229822 Ha        6703.04288171 eV
  | Free-atom electrostatic energy:       -1255.93111553 Ha      -34175.62449033 eV
  | Hartree energy correction     :          -3.87620402 Ha        -105.47687810 eV
  | Entropy correction            :          -0.00000000 Ha          -0.00000000 eV
  | ---------------------------
  | Total energy                  :       -2837.24320764 Ha      -77205.31584302 eV
  | Total energy, T -> 0          :       -2837.24320764 Ha      -77205.31584302 eV  <-- do not rely on this value for anything but (periodic) metals
  | Electronic free energy        :       -2837.24320764 Ha      -77205.31584302 eV

  Derived energy quantities:
  | Kinetic energy                :        2834.02614185 Ha       77117.77502898 eV
  | Electrostatic energy          :       -5480.59756222 Ha     -149134.64755523 eV
  | Energy correction for multipole
  | error in Hartree potential    :          -0.01966807 Ha          -0.53519541 eV
  | Sum of eigenvalues per atom                           :       -3418.37031073 eV
  | Total energy (T->0) per atom                          :       -5938.87044946 eV  <-- do not rely on this value for anything but (periodic) metals
  | Electronic free energy per atom                       :       -5938.87044946 eV

  atomic forces [eV/Ang]:
  -----------------------
  atom #    1
   Hellmann-Feynman              : -0.801875E-01 -0.465683E-01  0.655001E-01
   Ionic forces                  :  0.000000E+00  0.000000E+00  0.000000E+00
   Multipole                     : -0.812644E-02 -0.456056E-02  0.656424E-02
   Pulay + GGA                   :  0.581110E-01  0.336264E-01 -0.472979E-01
   Van der Waals                 :  0.000000E+00  0.000000E+00  0.000000E+00
   ----------------------------------------------------------------
   Total forces(   1)            : -0.302029E-01 -0.175024E-01  0.247664E-01
  atom #    2
   Hellmann-Feynman              :  0.797246E-01  0.463974E-01 -0.655395E-01
   Ionic forces                  :  0.000000E+00  0.000000E+00  0.000000E+00
   Multipole                     :  0.807152E-02  0.437478E-02 -0.657147E-02
   Pulay + GGA                   : -0.574870E-01 -0.333157E-01  0.473225E-01
   Van der Waals                 :  0.000000E+00  0.000000E+00  0.000000E+00
   ----------------------------------------------------------------
   Total forces(   2)            :  0.303091E-01  0.174565E-01 -0.247885E-01
  atom #    3
   Hellmann-Feynman              :  0.801873E-01 -0.465684E-01  0.655000E-01
   Ionic forces                  :  0.000000E+00  0.000000E+00  0.000000E+00
   Multipole                     :  0.812645E-02 -0.456055E-02  0.656424E-02
   Pulay + GGA                   : -0.581111E-01  0.336264E-01 -0.472979E-01
   Van der Waals                 :  0.000000E+00  0.000000E+00  0.000000E+00
   ----------------------------------------------------------------
   Total forces(   3)            :  0.302027E-01 -0.175025E-01  0.247663E-01
  atom #    4
   Hellmann-Feynman              : -0.797248E-01  0.463975E-01 -0.655395E-01
   Ionic forces                  :  0.000000E+00  0.000000E+00  0.000000E+00
   Multipole                     : -0.807152E-02  0.437478E-02 -0.657148E-02
   Pulay + GGA                   :  0.574870E-01 -0.333157E-01  0.473224E-01
   Van der Waals                 :  0.000000E+00  0.000000E+00  0.000000E+00
   ----------------------------------------------------------------
   Total forces(   4)            : -0.303092E-01  0.174566E-01 -0.247885E-01
  atom #    5
   Hellmann-Feynman              :  0.102551E-07 -0.928762E-01 -0.654369E-01
   Ionic forces                  :  0.000000E+00  0.000000E+00  0.000000E+00
   Multipole                     : -0.258064E-08 -0.925854E-02 -0.651363E-02
   Pulay + GGA                   : -0.388724E-08  0.671465E-01  0.472320E-01
   Van der Waals                 :  0.000000E+00  0.000000E+00  0.000000E+00
   ----------------------------------------------------------------
   Total forces(   5)            :  0.378726E-08 -0.349883E-01 -0.247185E-01
  atom #    6
   Hellmann-Feynman              : -0.101880E-06  0.931143E-01  0.663767E-01
   Ionic forces                  :  0.000000E+00  0.000000E+00  0.000000E+00
   Multipole                     :  0.736548E-08  0.932744E-02  0.636818E-02
   Pulay + GGA                   :  0.196512E-07 -0.673841E-01 -0.481058E-01
   Van der Waals                 :  0.000000E+00  0.000000E+00  0.000000E+00
   ----------------------------------------------------------------
   Total forces(   6)            : -0.748637E-07  0.350576E-01  0.246391E-01
  atom #    7
   Hellmann-Feynman              : -0.826171E-06 -0.849480E-03  0.118050E-02
   Ionic forces                  :  0.000000E+00  0.000000E+00  0.000000E+00
   Multipole                     : -0.671609E-07  0.134797E-02  0.310996E-03
   Pulay + GGA                   : -0.482051E-07 -0.487034E-03 -0.162887E-02
   Van der Waals                 :  0.000000E+00  0.000000E+00  0.000000E+00
   ----------------------------------------------------------------
   Total forces(   7)            : -0.941537E-06  0.114532E-04 -0.137375E-03
  atom #    8
   Hellmann-Feynman              : -0.121644E+02  0.702502E+01  0.496566E+01
   Ionic forces                  :  0.000000E+00  0.000000E+00  0.000000E+00
   Multipole                     :  0.316252E+00 -0.181763E+00 -0.128984E+00
   Pulay + GGA                   :  0.108476E+02 -0.626542E+01 -0.442818E+01
   Van der Waals                 :  0.000000E+00  0.000000E+00  0.000000E+00
   ----------------------------------------------------------------
   Total forces(   8)            : -0.100057E+01  0.577839E+00  0.408499E+00
  atom #    9
   Hellmann-Feynman              : -0.169527E-06  0.250750E-03 -0.149025E+02
   Ionic forces                  :  0.000000E+00  0.000000E+00  0.000000E+00
   Multipole                     : -0.905703E-08  0.154040E-02  0.388399E+00
   Pulay + GGA                   :  0.406009E-06 -0.175078E-02  0.132884E+02
   Van der Waals                 :  0.000000E+00  0.000000E+00  0.000000E+00
   ----------------------------------------------------------------
   Total forces(   9)            :  0.227426E-06  0.403712E-04 -0.122567E+01
  atom #   10
   Hellmann-Feynman              : -0.171133E-06 -0.140502E+02  0.496965E+01
   Ionic forces                  :  0.000000E+00  0.000000E+00  0.000000E+00
   Multipole                     : -0.942287E-08  0.367827E+00 -0.128143E+00
   Pulay + GGA                   :  0.380922E-06  0.125275E+02 -0.443309E+01
   Van der Waals                 :  0.000000E+00  0.000000E+00  0.000000E+00
   ----------------------------------------------------------------
   Total forces(  10)            :  0.200366E-06 -0.115487E+01  0.408416E+00
  atom #   11
   Hellmann-Feynman              :  0.121644E+02  0.702502E+01  0.496566E+01
   Ionic forces                  :  0.000000E+00  0.000000E+00  0.000000E+00
   Multipole                     : -0.316252E+00 -0.181763E+00 -0.128984E+00
   Pulay + GGA                   : -0.108476E+02 -0.626542E+01 -0.442818E+01
   Van der Waals                 :  0.000000E+00  0.000000E+00  0.000000E+00
   ----------------------------------------------------------------
   Total forces(  11)            :  0.100057E+01  0.577839E+00  0.408499E+00
  atom #   12
   Hellmann-Feynman              :  0.234304E-07 -0.199537E-02  0.295660E-02
   Ionic forces                  :  0.000000E+00  0.000000E+00  0.000000E+00
   Multipole                     :  0.681697E-08  0.489742E-03 -0.223762E-02
   Pulay + GGA                   : -0.305080E-06  0.157656E-02 -0.768995E-03
   Van der Waals                 :  0.000000E+00  0.000000E+00  0.000000E+00
   ----------------------------------------------------------------
   Total forces(  12)            : -0.274833E-06  0.709328E-04 -0.500122E-04
  atom #   13
   Hellmann-Feynman              : -0.433834E-06  0.102421E-02 -0.125939E-02
   Ionic forces                  :  0.000000E+00  0.000000E+00  0.000000E+00
   Multipole                     :  0.130103E-09  0.117071E-04 -0.158572E-04
   Pulay + GGA                   :  0.493362E-06 -0.110663E-02  0.119946E-02
   Van der Waals                 :  0.000000E+00  0.000000E+00  0.000000E+00
   ----------------------------------------------------------------
   Total forces(  13)            :  0.596585E-07 -0.707177E-04 -0.757849E-04

  Timings for VdW correction (Tkatchenko-Scheffler 2009 or later):
  | CPU time:       83.070 s, Wall clock time:       83.098 s.
  Removing unitary transformations (pure translations, rotations) from forces on atoms.
  Atomic forces before filtering:
  | Net force on center of mass :  -0.126746E-06  0.838872E-03 -0.646791E-03 eV/A
  Atomic forces after filtering:
  | Net force on center of mass :   0.479216E-15 -0.184961E-15  0.268502E-15 eV/A

  Energy and forces in a compact form:
  | Total energy uncorrected      :         -0.772053158430241E+05 eV
  | Total energy corrected        :         -0.772053158430241E+05 eV  <-- do not rely on this value for anything but (periodic) metals
  | Electronic free energy        :         -0.772053158430241E+05 eV
  Total atomic forces (unitary forces cleaned) [eV/Ang]:
  |   1         -0.302028681971995E-01         -0.175669673857310E-01          0.248161656759985E-01
  |   2          0.303091145707222E-01          0.173919870378149E-01         -0.247387599932241E-01
  |   3          0.302027252243549E-01         -0.175670102743208E-01          0.248160767997110E-01
  |   4         -0.303092360098397E-01          0.173920723548983E-01         -0.247387847159640E-01
  |   5          0.135369514833008E-07         -0.350527856879973E-01         -0.246687419441876E-01
  |   6         -0.651139620175829E-07          0.349930678574791E-01          0.246888812332448E-01
  |   7         -0.931787392742751E-06         -0.530753897004378E-04         -0.876214550609981E-04
  |   8         -0.100056736372619E+01          0.577774062354941E+00          0.408548491821342E+00
  |   9          0.237175437255906E-06         -0.241573921464491E-04         -0.122562407196465E+01
  |  10          0.210115836311907E-06         -0.115493275048174E+01          0.408465938248874E+00
  |  11          0.100056835988651E+01          0.577774399202785E+00          0.408548717114738E+00
  |  12         -0.265083372343057E-06          0.640415781231479E-05         -0.259085076700735E-06
  |  13          0.694081458513061E-07         -0.135246354093633E-03         -0.260317357435992E-04

  ------------------------------------ 
  Start decomposition of the XC Energy 
  ------------------------------------ 
  X and C from original XC functional choice 
  Hartree-Fock Energy :          0.000000000 Ha              0.000000000 eV
  X Energy            :       -185.798882580 Ha          -5055.844833546 eV
  C Energy            :         -4.872904693 Ha           -132.598483227 eV
  Total XC Energy     :       -190.671787272 Ha          -5188.443316773 eV
  ------------------------------------ 
  LDA X and C from self-consistent density 
  X Energy LDA        :       -171.894860521 Ha          -4677.497143201 eV
  C Energy LDA        :         -9.799126310 Ha           -266.647793797 eV
  ------------------------------------ 
  End decomposition of the XC Energy 
  ------------------------------------ 

------------------------------------------------------------

------------------------------------------------------------------------------
  Final output of selected total energy values:

  The following output summarizes some interesting total energy values
  at the end of a run (AFTER all relaxation, molecular dynamics, etc.).

  | Total energy of the DFT / Hartree-Fock s.c.f. calculation      :         -77205.315843024 eV
  | Final zero-broadening corrected energy (caution - metals only) :         -77205.315843024 eV
  | For reference only, the value of 1 Hartree used in FHI-aims is :             27.211384500 eV

  Before relying on these values, please be sure to understand exactly which
  total energy value is referred to by a given number. Different objects may
  all carry the same name 'total energy'. Definitions:

  Total energy of the DFT / Hartree-Fock s.c.f. calculation:
  | Note that this energy does not include ANY quantities calculated after the
  | s.c.f. cycle, in particular not ANY RPA, MP2, etc. many-body perturbation terms.

  Final zero-broadening corrected energy:
  | For metallic systems only, a broadening of the occupation numbers at the Fermi
  | level can be extrapolated back to zero broadening by an electron-gas inspired
  | formula. For all systems that are not real metals, this value can be
  | meaningless and should be avoided.

------------------------------------------------------------------------------
  Methods described in the following list of references were used in this FHI-aims run.
  If you publish the results, please make sure to cite these reference if they apply.
  FHI-aims is an academic code, and for our developers (often, Ph.D. students
  and postdocs), scientific credit in the community is essential.
  Thank you for helping us!

  For any use of FHI-aims, please cite:

    Volker Blum, Ralf Gehrke, Felix Hanke, Paula Havu, Ville Havu,
    Xinguo Ren, Karsten Reuter, and Matthias Scheffler
    'Ab initio molecular simulations with numeric atom-centered orbitals'
    Computer Physics Communications 180, 2175-2196 (2009)
    http://dx.doi.org/10.1016/j.cpc.2009.06.022


  The provided symmetry information was generated with SPGlib:

    Atsushi Togo, Yusuke Seto, Dimitar Pashov
    SPGlib 1.7.3 obtained from http://spglib.sourceforge.net
    Copyright (C) 2008 Atsushi Togo


  The scalable eigensolver library ELPA was used in your run.
  ELPA is essential especially for large systems on hundreds or thousands of CPUs.
  For ELPA, please cite:

    Andreas Marek, Volker Blum, Rainer Johanni, Ville Havu, Bruno Lang,
    Thomas Auckenthaler, Alexander Heinecke, Hans-Joachim Bungartz, and Hermann Lederer,
    'The ELPA Library - Scalable Parallel Eigenvalue Solutions
    for Electronic Structure Theory and Computational Science'
    The Journal of Physics: Condensed Matter 26, 213201 (2014).
    http://dx.doi.org/10.1088/0953-8984/26/21/213201


  The ELSI infrastructure was used in your run to solve the Kohn-Sham electronic structure.
  Please check out http://elsi-interchange.org to learn more.
  If scalability is important for your project, please acknowledge ELSI by citing:

    V. W-z. Yu, F. Corsetti, A. Garcia, W. P. Huhn, M. Jacquelin, W. Jia,
    B. Lange, L. Lin, J. Lu, W. Mi, A. Seifitokaldani, A. Vazquez-Mayagoitia,
    C. Yang, H. Yang, and V. Blum
    'ELSI: A unified software interface for Kohn-Sham electronic structure solvers'
    Computer Physics Communications 222, 267-285 (2018).
    http://dx.doi.org/10.1016/j.cpc.2017.09.007


  For the real-space grid partitioning and parallelization used in this calculation, please cite:

    Ville Havu, Volker Blum, Paula Havu, and Matthias Scheffler,
    'Efficient O(N) integration for all-electron electronic structure calculation'
    'using numerically tabulated basis functions'
    Journal of Computational Physics 228, 8367-8379 (2009).
    http://dx.doi.org/10.1016/j.jcp.2009.08.008

  Of course, there are many other important community references, e.g., those cited in the
  above references. Our list is limited to references that describe implementations in the
  FHI-aims code. The reason is purely practical (length of this list) - please credit others as well.

------------------------------------------------------------
          Leaving FHI-aims.
          Date     :  20220223, Time     :  053652.612

          Computational steps:
          | Number of self-consistency cycles          :           17
          | Number of SCF (re)initializations          :            1

          Detailed time accounting                     :  max(cpu_time)    wall_clock(cpu1)
          | Total time                                 :     6394.448 s        6397.244 s
          | Preparation time                           :        0.316 s           0.316 s
          | Boundary condition initalization           :        0.496 s           0.496 s
          | Grid partitioning                          :        2.986 s           2.987 s
          | Preloading free-atom quantities on grid    :        0.014 s           0.014 s
          | Free-atom superposition energy             :        2.249 s           2.249 s
          | Total time for integrations                :     1727.447 s        1727.958 s
          | Total time for solution of K.-S. equations :       16.953 s          16.959 s
          | Total time for density & force components  :     3872.644 s        3874.474 s
          | Total time for mixing & preconditioning    :      172.383 s         172.530 s
          | Total time for Hartree multipole update    :        0.416 s           0.418 s
          | Total time for Hartree multipole sum       :      496.441 s         496.678 s
          | Total time for total energy evaluation     :        0.003 s           0.006 s
          | Total time for vdW correction              :       83.070 s          83.098 s

          Partial memory accounting:
          | Residual value for overall tracked memory usage across tasks :           0.000 MB (should be 0.000 MB)
          | Peak values for overall tracked memory usage (after allocating wave_pulay):
          |   Minimum:      120.538 MB (on task 1)
          |   Maximum:      120.538 MB (on task 1)
          |   Average:      120.538 MB
          | Largest tracked array allocation (hamiltonian_shell):
          |   Minimum:       27.588 MB (on task 1)
          |   Maximum:       27.588 MB (on task 1)
          |   Average:       27.588 MB
          Note:  These values currently only include a subset of arrays which are explicitly tracked.
          The "true" memory usage will be greater.

          Have a nice day.
------------------------------------------------------------
