  MPI-parallelism will be employed.
------------------------------------------------------------
          Invoking FHI-aims ...
          Version 171221_1
          Compiled on 2020/11/22 at 19:48:33 on host core401.

          When using FHI-aims, please cite the following reference:

          Volker Blum, Ralf Gehrke, Felix Hanke, Paula Havu,
          Ville Havu, Xinguo Ren, Karsten Reuter, and Matthias Scheffler,
          'Ab Initio Molecular Simulations with Numeric Atom-Centered Orbitals',
          Computer Physics Communications 180, 2175-2196 (2009)

          For any questions about FHI-aims, please visit the aimsclub website
          with its forums and wiki. Contributions to both the forums and the
          wiki are warmly encouraged - they are for you, and everyone is welcome there.

------------------------------------------------------------



  Date     :  20220222, Time     :  235959.620
  Time zero on CPU 1             :   0.790220000000000E-01  s.
  Internal wall clock time zero  :           414806399.620  s.

  FHI-aims created a unique identifier for this run for later identification
  aims_uuid : AD0FA12A-BB1C-4757-A1CD-D16412EDB235

  Using        1 parallel tasks.
  Task        0 on host core401 reporting.

  Performing system and environment tests:
  *** Environment variable OMP_NUM_THREADS is not set
  *** For performance reasons you might want to set it to 1
  | Maximum stacksize for task 0: unlimited
  | Current stacksize for task 0: unlimited
  | Checking for scalapack...
  | Testing pdtran()...
  | All pdtran() tests passed.

  Obtaining array dimensions for all initial allocations:
  
  -----------------------------------------------------------------------
  Parsing control.in (first pass over file, find array dimensions only).
  The contents of control.in will be repeated verbatim below
  unless switched off by setting 'verbatim_writeout .false.' .
  in the first line of control.in .
  -----------------------------------------------------------------------
  
  #===============================================================================
  # FHI-aims file: ./control.in
  # Created using the Atomic Simulation Environment (ASE)
  # Wed Mar 24 12:41:28 2021
  #===============================================================================
  xc                                 pbe
  # relax_geometry                     bfgs 1e-4
  sc_accuracy_etot                   1e-06
  sc_accuracy_eev                    0.001
  sc_accuracy_rho                    1e-06
  sc_accuracy_forces                 0.0001
  many_body_dispersion
  k_grid                             3 3 3
  
    #output band 0.0   0.0   0.0   0.5   0.5   0.0    10  Gamma M
    #output band 0.5   0.5   0.0   0.5   0.5   0.5    10  M     R
    #output band 0.5   0.5   0.5   0.0   0.5   0.0    10  R     X
  
    #output  dos              -18. 10. 200 0.1
    #output  species_proj_dos -18. 10. 200 0.1
  
  #===============================================================================
  
  ################################################################################
  #
  #  FHI-aims code project
  # Volker Blum, Fritz Haber Institute Berlin, 2009
  #
  #  Suggested "tight" defaults for Li atom (to be pasted into control.in file)
  #
  #  2016/03/22: Increased cutoff radius to 5.0 AA (Xinguo Ren, Aug 15, 2015)
  #
  ################################################################################
    species        Li
  #     global species definitions
      nucleus             3
      mass                6.941
  #
      l_hartree           6
  #
      cut_pot             5.0  2.0  1.0
      basis_dep_cutoff    1e-4
  #
      radial_base         29 7.0
      radial_multiplier   2
      angular_grids       specified
        division   0.4484  110
        division   0.5659  194
        division   0.6315  302
        division   0.6662  434
  #      division   0.8186  590
  #      division   0.9037  770
  #      division   6.2760  974
  #      outer_grid   974
        outer_grid  434
  ################################################################################
  #
  #  Definition of "minimal" basis
  #
  ################################################################################
  #     valence basis states
      valence      2  s   1.
  #     ion occupancy
      ion_occ      1  s   2.
  ################################################################################
  #
  #  Suggested additional basis functions. For production calculations,
  #  uncomment them one after another (the most important basis functions are
  #  listed first).
  #
  #  Constructed for dimers: 1.80 A, 2.25 A, 2.75 A, 3.50 A, 4.50 A
  #
  ################################################################################
  #  "First tier" - improvements: -189.23 meV to -6.35 meV
       hydro 2 p 1.6
       hydro 2 s 2
       hydro 3 d 2.6
  #  "Second tier" - improvements: -4.69 meV to -0.41 meV
       hydro 3 p 4.6
       hydro 2 p 1.8
       hydro 3 s 6.2
       hydro 4 d 4.7
       hydro 4 f 4.1
  #  "Third tier" - improvements: -0.20 meV to -0.15 meV
  #     hydro 4 d 0.95
  #     hydro 3 p 6.2
  #     hydro 3 s 1.7
  #  Further functions, listed for completeness
  #     VB: The following functions are only listed for completeness; test very
  #         carefully before any kind of production use. From the point of view
  #         of the basis construction, their main role is to fill up space,
  #         and they are solely determined by the location of the cutoff potential.
  #     hydro 3 p 0.1  # -0.15 meV
  #     hydro 4 d 5    # -0.12 meV
  #     hydro 4 f 0.1  # -0.14 meV
  #     hydro 5 g 0.1  # -0.06 meV
  
  
  ################################################################################
  #
  # For methods that use the localized form of the "resolution of identity" for
  # the two-electron Coulomb operator (RI_method LVL), particularly Hartree-Fock and
  # hybrid density functional calculations, the highest accuracy can be obtained by
  # uncommenting the line beginning with "for_aux"  below, thus adding an extra g radial
  # function to the construction of the product basis set for the expansion.
  # See Ref. New J. Phys. 17, 093020 (2015) for more information, particularly Figs. 1 and 6.
  #
  ################################################################################
  #
  # for_aux hydro 5 g 6.0
  ################################################################################
  #
  #  FHI-aims code project
  # Volker Blum, Fritz Haber Institute Berlin, 2010
  #
  #  Suggested "tight" defaults for P atom (to be pasted into control.in file)
  #
  #  Revised Jan 04, 2011, following tests (SiC) done by Lydia Nemec:
  #     d function of tier 2 now enabled by default.
  #
  ################################################################################
    species        P
  #     global species definitions
      nucleus             15
      mass                30.973762
  #
      l_hartree           6
  #
      cut_pot             4.0          2.0  1.0
      basis_dep_cutoff    1e-4
  #
      radial_base         43 7.0
      radial_multiplier   2
      angular_grids       specified
        division   0.2995   50
        division   0.5998  110
        division   0.9240  194
        division   1.0921  302
        division   1.2863  434
  #      division   1.3165  590
  #      division   1.4113  770
  #      division   1.5128  974
  #      division   2.4980 1202
        outer_grid  434
  ################################################################################
  #
  #  Definition of "minimal" basis
  #
  ################################################################################
  #     valence basis states
      valence      3  s   2.
      valence      3  p   3.
  #     ion occupancy
      ion_occ      3  s   1.
      ion_occ      3  p   2.
  ################################################################################
  #
  #  Suggested additional basis functions. For production calculations,
  #  uncomment them one after another (the most important basis functions are
  #  listed first).
  #
  #  Constructed for dimers: 1.625 A, 1.875 A, 2.5 A, 3.25 A, 4.0 A
  #
  ################################################################################
  #  "First tier" - improvements: -726.20 meV to -35.91 meV
       ionic 3 d auto
       ionic 3 p auto
       hydro 4 f 6.2
       hydro 5 g 8.6
       ionic 3 s auto
  #  "Second tier" - improvements: -16.02 meV to -1.71 meV
       hydro 4 d 6.2
  #     hydro 4 p 9.2
  #     hydro 5 f 9.8
  #     hydro 1 s 0.7
  #     hydro 5 g 13.2
  #  "Third tier" - improvements: -1.82 meV to -0.20 meV
  #     hydro 3 p 2.5
  #     hydro 4 d 6.4
  #     hydro 5 f 11.2
  #     hydro 2 s 1.5
  #  "Fourth tier" - improvements: -0.91 meV to -0.17 meV
  #     hydro 3 d 16.8
  #     hydro 5 g 18
  #     hydro 4 p 4.5
  #     hydro 3 s 2.1
  #  Further basis functions that fell out of the optimization - < -0.09 meV
  #     hydro 4 p 10.4
  #     hydro 4 d 17.6
  #     hydro 4 s 11.2
  ################################################################################
  #
  # For methods that use the localized form of the "resolution of identity" for
  # the two-electron Coulomb operator (RI_method LVL), particularly Hartree-Fock and
  # hybrid density functional calculations, the highest accuracy can be obtained by
  # uncommenting the line beginning with "for_aux"  below, thus adding an extra g radial
  # function to the construction of the product basis set for the expansion.
  # See Ref. New J. Phys. 17, 093020 (2015) for more information, particularly Figs. 1 and 6.
  #
  ################################################################################
  #
  # for_aux hydro 5 g 6.0
  ################################################################################
  #
  #  FHI-aims code project
  # Volker Blum, Fritz Haber Institute Berlin, 2009
  #
  #  Suggested "tight" defaults for S atom (to be pasted into control.in file)
  #
  #  Revised Jan 04, 2011, following tests (SiC) done by Lydia Nemec:
  #     d and g functions of tier 2 now enabled by default.
  #
  ################################################################################
    species        S
  #     global species definitions
      nucleus             16
      mass                32.065
  #
      l_hartree           6
  #
      cut_pot             4.0          2.0  1.0
      basis_dep_cutoff    1e-4
  #
      radial_base         44 7.0
      radial_multiplier   2
      angular_grids       specified
        division   0.4665  110
        division   0.5810  194
        division   0.7139  302
        division   0.8274  434
  #      division   0.9105  590
  #      division   1.0975  770
  #      division   1.2028  974
  #      outer_grid  974
        outer_grid  434
  ################################################################################
  #
  #  Definition of "minimal" basis
  #
  ################################################################################
  #     valence basis states
      valence      3  s   2.
      valence      3  p   4.
  #     ion occupancy
      ion_occ      3  s   1.
      ion_occ      3  p   3.
  ################################################################################
  #
  #  Suggested additional basis functions. For production calculations,
  #  uncomment them one after another (the most important basis functions are
  #  listed first).
  #
  #  Constructed for dimers: 1.6 A, 1.9 A, 2.5 A, 3.25 A, 4.0 A
  #
  ################################################################################
  #  "First tier" - improvements: -652.81 meV to -45.53 meV
       ionic 3 d auto
       hydro 2 p 1.8
       hydro 4 f 7
       ionic 3 s auto
  #  "Second tier" - improvements: -30.20 meV to -1.74 meV
       hydro 4 d 6.2
       hydro 5 g 10.8
  #     hydro 4 p 4.9
  #     hydro 5 f 10
  #     hydro 1 s 0.8
  #  "Third tier" - improvements: -1.04 meV to -0.20 meV
  #     hydro 3 d 3.9
  #     hydro 3 d 2.7
  #     hydro 5 g 12
  #     hydro 4 p 10.4
  #     hydro 5 f 12.4
  #     hydro 2 s 1.9
  #  "Fourth tier" - improvements: -0.35 meV to -0.06 meV
  #     hydro 4 d 10.4
  #     hydro 4 p 7.2
  #     hydro 4 d 10
  #     hydro 5 g 19.2
  #     hydro 4 s 12
  
  ################################################################################
  #
  # For methods that use the localized form of the "resolution of identity" for
  # the two-electron Coulomb operator (RI_method LVL), particularly Hartree-Fock and
  # hybrid density functional calculations, the highest accuracy can be obtained by
  # uncommenting the line beginning with "for_aux"  below, thus adding an extra g radial
  # function to the construction of the product basis set for the expansion.
  # See Ref. New J. Phys. 17, 093020 (2015) for more information, particularly Figs. 1 and 6.
  #
  ################################################################################
  #
  # for_aux hydro 5 g 6.0
  ################################################################################
  #
  #  FHI-aims code project
  # Volker Blum, Fritz Haber Institute Berlin, 2009
  #
  #  Suggested "tight" defaults for Cl atom (to be pasted into control.in file)
  #
  #  Revised Jan 04, 2011, following tests (SiC) done by Lydia Nemec:
  #     d function of tier 2 now enabled by default.
  #
  ################################################################################
    species        Cl
  #     global species definitions
      nucleus             17
      mass                35.453
  #
      l_hartree           6
  #
      cut_pot             4.0          2.0  1.0
      basis_dep_cutoff    1e-4
  #
      radial_base         45 7.0
      radial_multiplier   2
      angular_grids       specified
        division   0.4412  110
        division   0.5489  194
        division   0.6734  302
        division   0.7794  434
  #      division   0.9402  590
  #      division   1.0779  770
  #      division   1.1792  974
  #      outer_grid  974
        outer_grid  434
  ################################################################################
  #
  #  Definition of "minimal" basis
  #
  ################################################################################
  #     valence basis states
      valence      3  s   2.
      valence      3  p   5.
  #     ion occupancy
      ion_occ      3  s   1.
      ion_occ      3  p   4.
  ################################################################################
  #
  #  Suggested additional basis functions. For production calculations,
  #  uncomment them one after another (the most important basis functions are
  #  listed first).
  #
  #  Constructed for dimers: 1.65 A, 2.0 A, 2.5 A, 3.25 A, 4.0 A
  #
  ################################################################################
  #  "First tier" - improvements: -429.57 meV to -15.03 meV
       ionic 3 d auto
       hydro 2 p 1.9
       hydro 4 f 7.4
       ionic 3 s auto
       hydro 5 g 10.4
  #  "Second tier" - improvements: -7.84 meV to -0.48 meV
       hydro 3 d 3.3
  #     hydro 5 f 9.8
  #     hydro 1 s 0.75
  #     hydro 5 g 11.2
  #     hydro 4 p 10.4
  #  "Third tier" - improvements: -1.00 meV to -0.12 meV
  #     hydro 4 d 12.8
  #     hydro 4 f 4.6
  #     hydro 4 d 10.8
  #     hydro 2 s 1.8
  #     hydro 3 p 3
  #  Further functions that fell out - improvements: -0.10 meV and below
  #     hydro 5 f 14.4
  #     hydro 4 s 12.8
  #     hydro 3 d 11.6
  #     hydro 4 s 4.1
  ################################################################################
  #
  # For methods that use the localized form of the "resolution of identity" for
  # the two-electron Coulomb operator (RI_method LVL), particularly Hartree-Fock and
  # hybrid density functional calculations, the highest accuracy can be obtained by
  # uncommenting the line beginning with "for_aux"  below, thus adding an extra g radial
  # function to the construction of the product basis set for the expansion.
  # See Ref. New J. Phys. 17, 093020 (2015) for more information, particularly Figs. 1 and 6.
  #
  ################################################################################
  #
  # for_aux hydro 5 g 6.0
  
  
  -----------------------------------------------------------------------
  Completed first pass over input file control.in .
  -----------------------------------------------------------------------
  
  
  -----------------------------------------------------------------------
  Parsing geometry.in (first pass over file, find array dimensions only).
  The contents of geometry.in will be repeated verbatim below
  unless switched off by setting 'verbatim_writeout .false.' .
  in the first line of geometry.in .
  -----------------------------------------------------------------------
  
  #=======================================================
  # FHI-aims file: ./geo/geometry.in.0
  # Created using the Atomic Simulation Environment (ASE)
  # Tue Feb 22 23:54:07 2022
  #=======================================================
  lattice_vector 6.9052676029999995 0.0000000000000000 0.0000000000000000
  lattice_vector 3.4526338015000007 5.9801371641276768 0.0000000000000000
  lattice_vector 3.4526338015000007 1.9933790547092263 5.6381273882404930
  atom 1.8859183508581394 1.0888354675376017 2.6887496557958439 Li
  atom 5.0193492521418612 2.8979226418808501 0.1303140383244026 Li
  atom 5.0193492521418612 1.0888354675376017 2.6887496557958439 Li
  atom 1.8859183508581394 2.8979226418808501 0.1303140383244026 Li
  atom 3.4526338014999998 0.1842918803659774 0.1303140383244026 Li
  atom 3.4526338015000007 3.8024662290524742 2.6887496557958439 Li
  atom 6.9052676030000004 3.9867581094184517 2.8190636941202465 P
  atom 5.3098423284031755 4.9078772813112801 3.4703933068466029 S
  atom 6.9052675684736631 3.9867580894846619 0.8650747995599036 S
  atom 6.9052675684736631 2.1445197058314225 3.4703933068466029 S
  atom 8.5006928085441498 4.9078772813112801 3.4703933068466029 S
  atom 3.4526338015000002 1.9933790547092258 1.4095318470601232 S
  atom 0.0000000000000000 0.0000000000000000 0.0000000000000000 Cl
  
  -----------------------------------------------------------------------
  Completed first pass over input file geometry.in .
  -----------------------------------------------------------------------
  

  Basic array size parameters:
  | Number of species                 :        4
  | Number of atoms                   :       13
  | Number of lattice vectors         :        3
  | Max. basis fn. angular momentum   :        4
  | Max. atomic/ionic basis occupied n:        3
  | Max. number of basis fn. types    :        3
  | Max. radial fns per species/type  :        8
  | Max. logarithmic grid size        :     1362
  | Max. radial integration grid size :       91
  | Max. angular integration grid size:      434
  | Max. angular grid division number :        8
  | Radial grid for Hartree potential :     1362
  | Number of spin channels           :        1

------------------------------------------------------------
          Reading file control.in.
------------------------------------------------------------
  XC: Using PBE gradient-corrected functionals.
  Convergence accuracy of total energy:  0.1000E-05
  Convergence accuracy of sum of eigenvalues:  0.1000E-02
  Convergence accuracy of self-consistent charge density:  0.1000E-05
  Convergence accuracy of forces:  0.1000E-03
  Using the default MBD implementation with analytical forces
  Found k-point grid:         3         3         3
 
  Reading configuration options for species Li                  .
  | Found nuclear charge :   3.0000
  | Found atomic mass :    6.94100000000000      amu
  | Found l_max for Hartree potential  :   6
  | Found cutoff potl. onset [A], width [A], scale factor :    5.00000    2.00000    1.00000
  | Threshold for basis-dependent cutoff potential is   0.100000E-03
  | Found data for basic radial integration grid :    29 points, outermost radius =    7.000 A
  | Found multiplier for basic radial grid :   2
  | Found angular grid specification: user-specified.
  | Specified grid contains     5 separate shells.
  | Check grid settings after all constraints further below.
  | Found free-atom valence shell :  2 s   1.000
  | Found free-ion valence shell :  1 s   2.000
  | Found hydrogenic basis function :  2 p   1.600
  | Found hydrogenic basis function :  2 s   2.000
  | Found hydrogenic basis function :  3 d   2.600
  | Found hydrogenic basis function :  3 p   4.600
  | Found hydrogenic basis function :  2 p   1.800
  | Found hydrogenic basis function :  3 s   6.200
  | Found hydrogenic basis function :  4 d   4.700
  | Found hydrogenic basis function :  4 f   4.100
  Species Li                  : Missing cutoff potential type.
  Defaulting to exp(1/x)/(1-x)^2 type cutoff potential.
  Species Li: No 'logarithmic' tag. Using default grid for free atom:
  | Default logarithmic grid data [bohr] : 0.1000E-03 0.1000E+03 0.1012E+01
  Species Li: On-site basis accuracy parameter (for Gram-Schmidt orthonormalisation) not specified.
  Using default value basis_acc =  0.1000000E-03.
  Species Li                  : Using default innermost maximum threshold i_radial=  2 for radial functions.
  Species Li                  : Default cutoff onset for free atom density etc. : 0.50000000E+01 AA.
  Species Li                  : Basic radial grid will be enhanced according to radial_multiplier =   2, to contain    59 grid points.
 
  Reading configuration options for species P                   .
  | Found nuclear charge :  15.0000
  | Found atomic mass :    30.9737620000000      amu
  | Found l_max for Hartree potential  :   6
  | Found cutoff potl. onset [A], width [A], scale factor :    4.00000    2.00000    1.00000
  | Threshold for basis-dependent cutoff potential is   0.100000E-03
  | Found data for basic radial integration grid :    43 points, outermost radius =    7.000 A
  | Found multiplier for basic radial grid :   2
  | Found angular grid specification: user-specified.
  | Specified grid contains     6 separate shells.
  | Check grid settings after all constraints further below.
  | Found free-atom valence shell :  3 s   2.000
  | Found free-atom valence shell :  3 p   3.000
  | Found free-ion valence shell :  3 s   1.000
  | Found free-ion valence shell :  3 p   2.000
  | Found ionic basis function :  3 d , default cutoff radius.
  | Found ionic basis function :  3 p , default cutoff radius.
  | Found hydrogenic basis function :  4 f   6.200
  | Found hydrogenic basis function :  5 g   8.600
  | Found ionic basis function :  3 s , default cutoff radius.
  | Found hydrogenic basis function :  4 d   6.200
  Species P                   : Missing cutoff potential type.
  Defaulting to exp(1/x)/(1-x)^2 type cutoff potential.
  Species P : No 'logarithmic' tag. Using default grid for free atom:
  | Default logarithmic grid data [bohr] : 0.1000E-03 0.1000E+03 0.1012E+01
  | Will include ionic basis functions of  2.0-fold positive P                    ion.
  Species P : On-site basis accuracy parameter (for Gram-Schmidt orthonormalisation) not specified.
  Using default value basis_acc =  0.1000000E-03.
  Species P                   : Using default innermost maximum threshold i_radial=  2 for radial functions.
  Species P                   : Default cutoff onset for free atom density etc. : 0.40000000E+01 AA.
  Species P                   : Basic radial grid will be enhanced according to radial_multiplier =   2, to contain    87 grid points.
 
  Reading configuration options for species S                   .
  | Found nuclear charge :  16.0000
  | Found atomic mass :    32.0650000000000      amu
  | Found l_max for Hartree potential  :   6
  | Found cutoff potl. onset [A], width [A], scale factor :    4.00000    2.00000    1.00000
  | Threshold for basis-dependent cutoff potential is   0.100000E-03
  | Found data for basic radial integration grid :    44 points, outermost radius =    7.000 A
  | Found multiplier for basic radial grid :   2
  | Found angular grid specification: user-specified.
  | Specified grid contains     5 separate shells.
  | Check grid settings after all constraints further below.
  | Found free-atom valence shell :  3 s   2.000
  | Found free-atom valence shell :  3 p   4.000
  | Found free-ion valence shell :  3 s   1.000
  | Found free-ion valence shell :  3 p   3.000
  | Found ionic basis function :  3 d , default cutoff radius.
  | Found hydrogenic basis function :  2 p   1.800
  | Found hydrogenic basis function :  4 f   7.000
  | Found ionic basis function :  3 s , default cutoff radius.
  | Found hydrogenic basis function :  4 d   6.200
  | Found hydrogenic basis function :  5 g  10.800
  Species S                   : Missing cutoff potential type.
  Defaulting to exp(1/x)/(1-x)^2 type cutoff potential.
  Species S : No 'logarithmic' tag. Using default grid for free atom:
  | Default logarithmic grid data [bohr] : 0.1000E-03 0.1000E+03 0.1012E+01
  | Will include ionic basis functions of  2.0-fold positive S                    ion.
  Species S : On-site basis accuracy parameter (for Gram-Schmidt orthonormalisation) not specified.
  Using default value basis_acc =  0.1000000E-03.
  Species S                   : Using default innermost maximum threshold i_radial=  2 for radial functions.
  Species S                   : Default cutoff onset for free atom density etc. : 0.40000000E+01 AA.
  Species S                   : Basic radial grid will be enhanced according to radial_multiplier =   2, to contain    89 grid points.
 
  Reading configuration options for species Cl                  .
  | Found nuclear charge :  17.0000
  | Found atomic mass :    35.4530000000000      amu
  | Found l_max for Hartree potential  :   6
  | Found cutoff potl. onset [A], width [A], scale factor :    4.00000    2.00000    1.00000
  | Threshold for basis-dependent cutoff potential is   0.100000E-03
  | Found data for basic radial integration grid :    45 points, outermost radius =    7.000 A
  | Found multiplier for basic radial grid :   2
  | Found angular grid specification: user-specified.
  | Specified grid contains     5 separate shells.
  | Check grid settings after all constraints further below.
  | Found free-atom valence shell :  3 s   2.000
  | Found free-atom valence shell :  3 p   5.000
  | Found free-ion valence shell :  3 s   1.000
  | Found free-ion valence shell :  3 p   4.000
  | Found ionic basis function :  3 d , default cutoff radius.
  | Found hydrogenic basis function :  2 p   1.900
  | Found hydrogenic basis function :  4 f   7.400
  | Found ionic basis function :  3 s , default cutoff radius.
  | Found hydrogenic basis function :  5 g  10.400
  | Found hydrogenic basis function :  3 d   3.300
  Species Cl                  : Missing cutoff potential type.
  Defaulting to exp(1/x)/(1-x)^2 type cutoff potential.
  Species Cl: No 'logarithmic' tag. Using default grid for free atom:
  | Default logarithmic grid data [bohr] : 0.1000E-03 0.1000E+03 0.1012E+01
  | Will include ionic basis functions of  2.0-fold positive Cl                   ion.
  Species Cl: On-site basis accuracy parameter (for Gram-Schmidt orthonormalisation) not specified.
  Using default value basis_acc =  0.1000000E-03.
  Species Cl                  : Using default innermost maximum threshold i_radial=  2 for radial functions.
  Species Cl                  : Default cutoff onset for free atom density etc. : 0.40000000E+01 AA.
  Species Cl                  : Basic radial grid will be enhanced according to radial_multiplier =   2, to contain    91 grid points.
  | MBD: Using the same k-grid sampling as DFT
 
  Finished reading input file 'control.in'. Consistency checks are next.
 
  MPI_IN_PLACE appears to work with this MPI implementation.
  | Keeping use_mpi_in_place .true. (see manual).
  Target number of points in a grid batch is not set. Defaulting to  100
  Method for grid partitioning is not set. Defaulting to parallel hash+maxmin partitioning.
  Batch size limit is not set. Defaulting to    200
  By default, will store active basis functions for each batch.
  If in need of memory, prune_basis_once .false. can be used to disable this option.
  communication_type for Hartree potential was not specified.
  Defaulting to calc_hartree .
  Defaulting to Pulay charge density mixer.
  Pulay mixer: Number of relevant iterations not set.
  Defaulting to    8 iterations.
  Pulay mixer: Number of initial linear mixing iterations not set.
  Defaulting to    0 iterations.
  Work space size for distributed Hartree potential not set.
  Defaulting to   0.200000E+03 MB.
  Mixing parameter for charge density mixing has not been set.
  Using default: charge_mix_param =     0.0500.
  The mixing parameter will be adjusted in iteration number     2 of the first full s.c.f. cycle only.
  Algorithm-dependent basis array size parameters:
  | n_max_pulay                         :        8
  Maximum number of self-consistency iterations not provided.
  Presetting  1000 iterations.
  Presetting      1001 iterations before the initial mixing cycle
  is restarted anyway using the sc_init_iter criterion / keyword.
  Presetting a factor      1.000 between actual scf density residual
  and density convergence criterion sc_accuracy_rho below which sc_init_iter
  takes no effect.
  Geometry relaxation not requested: no relaxation will be performed.
  Handling of forces: Unphysical translation and rotation will be removed from forces.
  No accuracy limit for integral partition fn. given. Defaulting to  0.1000E-14.
  No threshold value for u(r) in integrations given. Defaulting to  0.1000E-05.
  No occupation type (smearing scheme) given. Defaulting to Gaussian broadening, width =  0.1000E-01 eV.
  The width will be adjusted in iteration number     2 of the first full s.c.f. cycle only.
  S.C.F. convergence parameters will be adjusted in iteration number     2 of the first full s.c.f. cycle only.
  No accuracy for occupation numbers given. Defaulting to  0.1000E-12.
  No threshold value for occupation numbers given. Defaulting to  0.0000E+00.
  No accuracy for fermi level given. Defaulting to  0.1000E-19.
  Maximum # of iterations to find E_F not set. Defaulting to  200.
  Preferred method for the eigenvalue solver ('KS_method') not specified in 'control.in'.
  Defaulting to serial version, 'lapack_fast'.
  Will not use alltoall communication since running on < 1024 CPUs.
  Threshold for basis singularities not set.
  Default threshold for basis singularities:  0.1000E-04
  partition_type (choice of integration weights) for integrals was not specified.
  | Using a version of the partition function of Stratmann and coworkers ('stratmann_smoother').
  | At each grid point, the set of atoms used to build the partition table is smoothly restricted to
  | only those atoms whose free-atom density would be non-zero at that grid point.
  Partitioning for Hartree potential was not defined. Using partition_type for integrals.
  | Adjusted default value of keyword multip_moments_threshold to:       0.10000000E-11
  | This value may affect high angular momentum components of the Hartree potential in periodic systems.
  Spin handling was not defined in control.in. Defaulting to unpolarized case.
  Angular momentum expansion for Kerker preconditioner not set explicitly.
  | Using default value of   0
  No explicit requirement for turning off preconditioner.
  | By default, it will be turned off when the charge convergence reaches
  | sc_accuracy_rho  =   0.100000E-05
  | sc_accuracy_eev  =   0.100000E-02
  | sc_accuracy_etot =   0.100000E-05
  No special mixing parameter while Kerker preconditioner is on.
  Using default: charge_mix_param =     0.0500.
  No q(lm)/r^(l+1) cutoff set for long-range Hartree potential.
  | Using default value of  0.100000E-09 .
  | Verify using the multipole_threshold keyword.
  Defaulting to new monopole extrapolation.
  Density update method: automatic selection selected.
  Using density matrix based charge density update.
  Using density matrix based charge density update.
  Using packed matrix style: index .
  Defaulting to use time-reversal symmetry for k-point grid.
------------------------------------------------------------


------------------------------------------------------------
          Reading geometry description geometry.in.
------------------------------------------------------------
 * Warning! You did not set the 'relativistic' flag in input file 'control.in'.
 * Since you are not attempting to treat any elements beyond Ca(Z=20), FHI-aims
 * will default to 'relativistic none'.
 * You must ensure that this is really what you want!!
 * For example, DO NOT compute total-energy differences between results from
 * different settings of the 'relativistic' flag.
  Input structure read successfully.
  The structure contains       13 atoms,  and a total of        130.000 electrons.

  Input geometry:
  | Unit cell:
  |        6.90526760        0.00000000        0.00000000
  |        3.45263380        5.98013716        0.00000000
  |        3.45263380        1.99337905        5.63812739
  | Atomic structure:
  |       Atom                x [A]            y [A]            z [A]
  |    1: Species Li            1.88591835        1.08883547        2.68874966
  |    2: Species Li            5.01934925        2.89792264        0.13031404
  |    3: Species Li            5.01934925        1.08883547        2.68874966
  |    4: Species Li            1.88591835        2.89792264        0.13031404
  |    5: Species Li            3.45263380        0.18429188        0.13031404
  |    6: Species Li            3.45263380        3.80246623        2.68874966
  |    7: Species P             6.90526760        3.98675811        2.81906369
  |    8: Species S             5.30984233        4.90787728        3.47039331
  |    9: Species S             6.90526757        3.98675809        0.86507480
  |   10: Species S             6.90526757        2.14451971        3.47039331
  |   11: Species S             8.50069281        4.90787728        3.47039331
  |   12: Species S             3.45263380        1.99337905        1.40953185
  |   13: Species Cl            0.00000000        0.00000000        0.00000000

  Lattice parameters for 3D lattice (in Angstroms) :     6.905268    6.905268    6.905268
  Angle(s) between unit vectors (in degrees)      :    60.000000   60.000000   60.000000

  |

  | The smallest distance between any two atoms is         1.95398884 AA.
  |
  | The first atom of this pair is atom number                     11 .
  | The second atom of this pair is atom number                     7 .
  | Wigner-Seitz cell of the first atom image           1     0     0 .
  | (The Wigner-Seitz cell of the second atom is 0 0 0  by definition.)

  Symmetry information by spglib:
  | Precision set to  0.1E-04
  | Number of Operations  : 24
  | Space group           : 216
  | International         : F-43m
  | Schoenflies           : Td^2

  Quantities derived from the lattice vectors:
  | Reciprocal lattice vector 1:  0.909912 -0.525338 -0.371470
  | Reciprocal lattice vector 2:  0.000000  1.050676 -0.371470
  | Reciprocal lattice vector 3:  0.000000 -0.000000  1.114410
  | Unit cell volume                               :   0.232823E+03  A^3

  Range separation radius for Ewald summation (hartree_convergence_parameter):      3.73181772 bohr.

  Fractional coordinates:
                         L1                L2                L3
       atom_frac         0.02311300        0.02311300        0.47688700  Li
       atom_frac         0.47688700        0.47688700        0.02311300  Li
       atom_frac         0.47688700        0.02311300        0.47688700  Li
       atom_frac         0.02311300        0.47688700        0.02311300  Li
       atom_frac         0.47688700        0.02311300        0.02311300  Li
       atom_frac         0.02311300        0.47688700        0.47688700  Li
       atom_frac         0.50000000        0.50000000        0.50000000  P
       atom_frac         0.15343300        0.61552233        0.61552233  S
       atom_frac         0.61552233        0.61552233        0.15343300  S
       atom_frac         0.61552233        0.15343300        0.61552233  S
       atom_frac         0.61552233        0.61552233        0.61552233  S
       atom_frac         0.25000000        0.25000000        0.25000000  S
       atom_frac         0.00000000        0.00000000        0.00000000  Cl

  Number of empty states per atom not set in control.in - providing a guess from actual geometry.
  | Total number of empty states used during s.c.f. cycle:       30
  If you use a very high smearing, use empty_states (per atom!) in control.in to increase this value.

  Structure-dependent array size parameters: 
  | Maximum number of distinct radial functions  :       43
  | Maximum number of basis functions            :      453
  | Number of Kohn-Sham states (occupied + empty):       95
------------------------------------------------------------

------------------------------------------------------------
          Preparing all fixed parts of the calculation.
------------------------------------------------------------
  Determining machine precision:
    2.225073858507201E-308
  Setting up grids for atomic and cluster calculations.

  Creating wave function, potential, and density for free atoms.

  Species: Li

  List of occupied orbitals and eigenvalues:
    n    l              occ      energy [Ha]    energy [eV]
    1    0           2.0000        -1.901473       -51.7417
    2    0           1.0000        -0.103132        -2.8064


  Species: P

  List of occupied orbitals and eigenvalues:
    n    l              occ      energy [Ha]    energy [eV]
    1    0           2.0000       -76.356288     -2077.7603
    2    0           2.0000        -6.358286      -173.0178
    3    0           2.0000        -0.509419       -13.8620
    2    1           6.0000        -4.573976      -124.4642
    3    1           3.0000        -0.201560        -5.4847


  Species: S

  List of occupied orbitals and eigenvalues:
    n    l              occ      energy [Ha]    energy [eV]
    1    0           2.0000       -88.108280     -2397.5483
    2    0           2.0000        -7.732485      -210.4116
    3    0           2.0000        -0.629532       -17.1304
    2    1           6.0000        -5.750324      -156.4743
    3    1           4.0000        -0.257562        -7.0086


  Species: Cl

  List of occupied orbitals and eigenvalues:
    n    l              occ      energy [Ha]    energy [eV]
    1    0           2.0000      -100.710795     -2740.4802
    2    0           2.0000        -9.222997      -250.9705
    3    0           2.0000        -0.754245       -20.5241
    2    1           6.0000        -7.039872      -191.5647
    3    1           5.0000        -0.316221        -8.6048

  Creating fixed part of basis set: Ionic, confined, hydrogenic.
 
  Li                   hydrogenic:
 
  List of hydrogenic basis orbitals: 
    n    l      effective z      eigenvalue [eV]  inner max. [A]     outer max. [A]     outer radius [A]   
    2    1         1.600000        -8.7048           1.319365           1.319365           6.386418
    2    0         2.000000       -13.6052           0.203259           1.385485           6.232164
    3    2         2.600000       -10.2084           1.835332           1.835332           6.386418
    3    1         4.600000       -31.9883           0.343834           1.385485           5.381805
    2    1         1.800000       -11.0199           1.181903           1.181903           6.386418
    3    0         6.200000       -58.1113           0.062858           1.111823           4.371906
    4    2         4.700000       -18.7772           0.761113           2.401695           6.386418
    4    3         4.100000       -14.2833           2.073992           2.073992           6.386418
 
 
  P                    ion:

  List of free ionic orbitals and eigenvalues:
    n    l      energy [Ha]    energy [eV]
    1    0       -77.297133     -2103.3620
    2    0        -7.273914      -197.9333
    3    0        -1.267536       -34.4914
    2    1        -5.491316      -149.4263
    3    1        -0.913470       -24.8568


  List of ionic basis orbitals and eigenvalues:
    n    l      energy [Ha]    energy [eV]    outer radius [A]
    3    2        -0.458060       -12.4644       5.404780
    3    1        -0.913461       -24.8565       4.724723
    3    0        -1.267529       -34.4912       4.232463

 
  P                    hydrogenic:
 
  List of hydrogenic basis orbitals: 
    n    l      effective z      eigenvalue [eV]  inner max. [A]     outer max. [A]     outer radius [A]   
    4    3         6.200000       -32.6870           1.357793           1.357793           5.339109
    5    4         8.600000       -40.2502           1.534356           1.534356           5.404780
    4    2         6.200000       -32.6848           0.577014           1.820771           5.404780
 
 
  S                    ion:

  List of free ionic orbitals and eigenvalues:
    n    l      energy [Ha]    energy [eV]
    1    0       -89.127201     -2425.2745
    2    0        -8.724378      -237.4024
    3    0        -1.464668       -39.8556
    2    1        -6.744348      -183.5230
    3    1        -1.048520       -28.5317


  List of ionic basis orbitals and eigenvalues:
    n    l      energy [Ha]    energy [eV]    outer radius [A]
    3    2        -0.496514       -13.5108       5.386362
    3    0        -1.464662       -39.8555       3.967934

 
  S                    hydrogenic:
 
  List of hydrogenic basis orbitals: 
    n    l      effective z      eigenvalue [eV]  inner max. [A]     outer max. [A]     outer radius [A]   
    2    1         1.800000       -11.0118           1.168531           1.168531           5.452614
    4    3         7.000000       -41.6672           1.212182           1.212182           5.066981
    4    2         6.200000       -32.6848           0.582121           1.814567           5.386362
    5    4        10.800000       -63.4785           1.227092           1.227092           4.766538
 
 
  Cl                   ion:

  List of free ionic orbitals and eigenvalues:
    n    l      energy [Ha]    energy [eV]
    1    0      -101.807232     -2770.3157
    2    0       -10.290876      -280.0290
    3    0        -1.664625       -45.2967
    2    1        -8.110237      -220.6908
    3    1        -1.183915       -32.2160


  List of ionic basis orbitals and eigenvalues:
    n    l      energy [Ha]    energy [eV]    outer radius [A]
    3    2        -0.529392       -14.4055       5.389057
    3    0        -1.664620       -45.2966       3.780461

 
  Cl                   hydrogenic:
 
  List of hydrogenic basis orbitals: 
    n    l      effective z      eigenvalue [eV]  inner max. [A]     outer max. [A]     outer radius [A]   
    2    1         1.900000       -12.2741           1.113321           1.113321           5.389057
    4    3         7.400000       -46.5653           1.140877           1.140877           4.886961
    5    4        10.400000       -58.8635           1.273568           1.273568           4.886961
    3    2         3.300000       -16.4532           1.439178           1.439178           5.455343
 

  Adding cutoff potential to free-atom effective potential.
  Creating atomic-like basis functions for current effective potential.

  Species Li                  :

  List of atomic basis orbitals and eigenvalues:
    n    l      energy [Ha]    energy [eV]    outer radius [A]
    1    0        -1.901473       -51.7417       4.318785
    2    0        -0.103132        -2.8064       6.464971


  Species P                   :

  List of atomic basis orbitals and eigenvalues:
    n    l      energy [Ha]    energy [eV]    outer radius [A]
    1    0       -76.356288     -2077.7603       0.736837
    2    0        -6.358286      -173.0178       2.532824
    3    0        -0.509419       -13.8620       5.274236
    2    1        -4.573976      -124.4642       2.862183
    3    1        -0.201560        -5.4847       5.404780


  Species S                   :

  List of atomic basis orbitals and eigenvalues:
    n    l      energy [Ha]    energy [eV]    outer radius [A]
    1    0       -88.108280     -2397.5483       0.682391
    2    0        -7.732485      -210.4116       2.317169
    3    0        -0.629532       -17.1304       5.256262
    2    1        -5.750324      -156.4743       2.555240
    3    1        -0.257562        -7.0086       5.386362


  Species Cl                  :

  List of atomic basis orbitals and eigenvalues:
    n    l      energy [Ha]    energy [eV]    outer radius [A]
    1    0      -100.710795     -2740.4802       0.642251
    2    0        -9.222997      -250.9705       2.128190
    3    0        -0.754245       -20.5241       5.194994
    2    1        -7.039872      -191.5647       2.346844
    3    1        -0.316221        -8.6048       5.323577

  Assembling full basis from fixed parts.
  | Species Li :   atomic orbital   1 s accepted.
  | Species Li :    hydro orbital   3 s accepted.
  | Species Li :    hydro orbital   2 s accepted.
  | Species Li :   atomic orbital   2 s accepted.
  | Species Li :    hydro orbital   3 p accepted.
  | Species Li :    hydro orbital   2 p accepted.
  | Species Li :    hydro orbital   2 p accepted.
  | Species Li :    hydro orbital   3 d accepted.
  | Species Li :    hydro orbital   4 d accepted.
  | Species Li :    hydro orbital   4 f accepted.
  | Species P :   atomic orbital   1 s accepted.
  | Species P :   atomic orbital   2 s accepted.
  | Species P :    ionic orbital   3 s accepted.
  | Species P :   atomic orbital   3 s accepted.
  | Species P :   atomic orbital   2 p accepted.
  | Species P :    ionic orbital   3 p accepted.
  | Species P :   atomic orbital   3 p accepted.
  | Species P :    ionic orbital   3 d accepted.
  | Species P :    hydro orbital   4 d accepted.
  | Species P :    hydro orbital   4 f accepted.
  | Species P :    hydro orbital   5 g accepted.
  | Species S :   atomic orbital   1 s accepted.
  | Species S :   atomic orbital   2 s accepted.
  | Species S :    ionic orbital   3 s accepted.
  | Species S :   atomic orbital   3 s accepted.
  | Species S :   atomic orbital   2 p accepted.
  | Species S :   atomic orbital   3 p accepted.
  | Species S :    hydro orbital   2 p accepted.
  | Species S :    ionic orbital   3 d accepted.
  | Species S :    hydro orbital   4 d accepted.
  | Species S :    hydro orbital   4 f accepted.
  | Species S :    hydro orbital   5 g accepted.
  | Species Cl :   atomic orbital   1 s accepted.
  | Species Cl :   atomic orbital   2 s accepted.
  | Species Cl :    ionic orbital   3 s accepted.
  | Species Cl :   atomic orbital   3 s accepted.
  | Species Cl :   atomic orbital   2 p accepted.
  | Species Cl :   atomic orbital   3 p accepted.
  | Species Cl :    hydro orbital   2 p accepted.
  | Species Cl :    ionic orbital   3 d accepted.
  | Species Cl :    hydro orbital   3 d accepted.
  | Species Cl :    hydro orbital   4 f accepted.
  | Species Cl :    hydro orbital   5 g accepted.
 
  Basis size parameters after reduction:
  | Total number of radial functions:       43
  | Total number of basis functions :      453
 
  Per-task memory consumption for arrays in subroutine allocate_ext:
  |          11.258640MB.
  Testing on-site integration grid accuracy.
  |  Species  Function  <phi|h_atom|phi> (log., in eV)  <phi|h_atom|phi> (rad., in eV)
           1        1                -51.7417001117                -51.7417000312
           1        2                 33.5927188637                 33.5926505054
           1        3                 69.1469416012                 69.1473382425
           1        4                 48.8336153902                 48.8810182289 ***
           1        5                 17.1749490570                 17.1749098864
           1        6                 32.1201183828                 32.1217831653
           1        7                  6.0166019876                  6.0249480535
           1        8                  4.9175332206                  4.9194842525
           1        9                 28.8010599263                 28.8011051086
           1       10                  9.9331480983                  9.9353515081
           2       11              -2077.7602992527              -2077.7602630746
           2       12               -173.0177635265               -173.0177629291
           2       13                -13.5620523038                -13.5620521963
           2       14                  6.3015351439                  6.3015396353
           2       15               -124.4642131574               -124.4642129967
           2       16                 -4.8468074573                 -4.8468065719
           2       17                  5.8113348591                  5.8108493787
           2       18                  5.1218113540                  5.1217878152
           2       19                 22.1386653152                 22.1386624883
           2       20                 19.3047268689                 19.3047231214
           2       21                 30.3235883931                 30.3235836780
           3       22              -2397.5482725833              -2397.5482291499
           3       23               -210.4116306505               -210.4116300246
           3       24                -16.8591546483                -16.8591544436
           3       25                  7.5848976656                  7.5849001027
           3       26               -156.4742745766               -156.4742744285
           3       27                 -7.0089268331                 -7.0089287934
           3       28                  6.8790437028                  6.8789536772
           3       29                  6.0023049431                  6.0023019693
           3       30                 19.5634804122                 19.5634829634
           3       31                 24.6809503130                 24.6809503093
           3       32                 47.5107032033                 47.5107040524
           4       33              -2740.4801671239              -2740.4801157382
           4       34               -250.9705040601               -250.9705032686
           4       35                -20.2716828479                -20.2716826054
           4       36                  9.0161300765                  9.0161279813
           4       37               -191.5646602865               -191.5646600866
           4       38                 -8.6049187754                 -8.6049181478
           4       39                  7.6458046208                  7.6458222053
           4       40                  6.9765726558                  6.9765744583
           4       41                 16.6546700656                 16.6546956458
           4       42                 28.0343243807                 28.0343233726
           4       43                 45.0370063060                 45.0370052039
 * Note: Onsite integrals marked "***" above are less accurate than
 * onsite_accuracy_threshold =    0.03000 eV. Usually, this is harmless.
 * When in doubt, tighten the "radial" and/or "radial_multiplier" flags to check.

  Preparing densities etc. for the partition functions (integrals / Hartree potential).

  Preparations completed.
  max(cpu_time)          :      0.316 s.
  Wall clock time (cpu1) :      0.351 s.
------------------------------------------------------------

------------------------------------------------------------
          Begin self-consistency loop: Initialization.

          Date     :  20220223, Time     :  000000.160
------------------------------------------------------------

  Initializing index lists of integration centers etc. from given atomic structure:
  Mapping all atomic coordinates to central unit cell.

  Initializing the k-points
          Using symmetry for reducing the k-points
  | k-points reduced from:       27 to       14
  | Number of k-points                             :        14
  The eigenvectors in the calculations are COMPLEX.
  | K-points in task   0:        14
  | Number of basis functions in the Hamiltonian integrals :      8909
  | Number of basis functions in a single unit cell        :       453
  | Number of centers in hartree potential         :      1732
  | Number of centers in hartree multipole         :      1228
  | Number of centers in electron density summation:       915
  | Number of centers in basis integrals           :      1005
  | Number of centers in integrals                 :       319
  | Number of centers in hamiltonian               :      1189
  | Consuming         36 KiB for k_phase.
  | Number of super-cells (origin) [n_cells]                     :         729
  | Number of super-cells (after PM_index) [n_cells]             :         166
  | Number of super-cells in hamiltonian [n_cells_in_hamiltonian]:         166
  | Size of matrix packed + index [n_hamiltonian_matrix_size] :     2622373
  Partitioning the integration grid into batches with parallel hashing+maxmin method.
  | Number of batches:     4095
  | Maximal batch size:     130
  | Minimal batch size:      63
  | Average batch size:      65.966
  | Standard deviation of batch sizes:       1.746

  Integration load balanced across     1 MPI tasks.
  Work distribution over tasks is as follows:
  Task     0 has     270130 integration points.
  Initializing partition tables, free-atom densities, potentials, etc. across the integration grid (initialize_grid_storage).
  | initialize_grid_storage: Actual outermost partition radius vs. multipole_radius_free
  | (-- VB: in principle, multipole_radius_free should be larger, hence this output)
  | Species        1: Confinement radius =              7.000000000000000 AA, multipole_radius_free =              7.042572113910259 AA.
  | Species        1: outer_partition_radius set to              7.042572113910259 AA .
  | Species        2: Confinement radius =              6.000000000000000 AA, multipole_radius_free =              6.033387558927091 AA.
  | Species        2: outer_partition_radius set to              6.033387558927091 AA .
  | Species        3: Confinement radius =              6.000000000000000 AA, multipole_radius_free =              6.012827091137924 AA.
  | Species        3: outer_partition_radius set to              6.012827091137924 AA .
  | Species        4: Confinement radius =              6.000000000000000 AA, multipole_radius_free =              6.015836048499353 AA.
  | Species        4: outer_partition_radius set to              6.015836048499353 AA .
  | Original list of interatomic distances with        1005 x       1005 entries is created.
  | Net number of integration points:   270130
  | of which are non-zero points    :   211853
  | Numerical average free-atom electrostatic potential    :    -11.37636242 eV
  Renormalizing the initial density to the exact electron count on the 3D integration grid.
  | Initial density: Formal number of electrons (from input files) :     130.0000000000
  | Integrated number of electrons on 3D grid     :     130.0000449594
  | Charge integration error                      :       0.0000449594
  | Normalization factor for density and gradient :       0.9999996542
  Obtaining max. number of non-zero basis functions in each batch (get_n_compute_maxes).
  | Maximal number of non-zero basis functions:     1952 in task     0
  Allocating        9.640 MB for KS_eigenvector_complex
  Integrating Hamiltonian matrix: batch-based integration.
  Time summed over all CPUs for integration: real work      422.652 s, elapsed      422.652 s
  Integrating overlap matrix.
  Time summed over all CPUs for integration: real work      340.554 s, elapsed      340.554 s
  Decreasing sparse matrix size:
   Tolerance:  9.999999824516700E-014
   Hamiltonian matrix
  | Array has  2321727 nonzero elements out of  2622373 elements
  | Sparsity factor is 0.115
   Overlap matrix
  | Array has  2177580 nonzero elements out of  2622373 elements
  | Sparsity factor is 0.170
  New size of hamiltonian matrix:     2322017

  Updating Kohn-Sham eigenvalues and eigenvectors using ELSI and the ELPA eigensolver.
  Overlap matrix is nonsingular
  | Lowest eigenvalue of overlap  :  0.13E-04
  | Highest eigenvalue of overlap :  0.16E+02
  Finished singularity check of overlap matrix
  | Time :     0.032 s
  Finished Cholesky decomposition
  | Time :     0.009 s
  Finished transformation to standard eigenproblem
  | Time :     0.013 s
  Starting LAPACK eigensolver
  Finished solving standard eigenproblem
  | Time :     0.030 s
  Finished back-transformation of eigenvectors
  | Time :     0.002 s

  Obtaining occupation numbers and chemical potential using ELSI.
  | Chemical potential (Fermi level):    -9.28390973eV
  Writing Kohn-Sham eigenvalues.
  K-point:       1 at    0.000000    0.000000    0.000000 (in units of recip. lattice)

  State    Occupation    Eigenvalue [Ha]    Eigenvalue [eV]
      1       2.00000        -100.723812        -2740.83438
      2       2.00000         -88.217861        -2400.53012
      3       2.00000         -88.172689        -2399.30095
      4       2.00000         -88.172689        -2399.30095
      5       2.00000         -88.172689        -2399.30095
      6       2.00000         -88.172689        -2399.30095
      7       2.00000         -76.409776        -2079.21579
      8       2.00000          -9.236772         -251.34535
      9       2.00000          -7.846292         -213.50847
     10       2.00000          -7.801032         -212.27689
     11       2.00000          -7.801032         -212.27689
     12       2.00000          -7.801032         -212.27689
     13       2.00000          -7.801032         -212.27689
     14       2.00000          -7.053549         -191.93684
     15       2.00000          -7.053549         -191.93684
     16       2.00000          -7.053549         -191.93684
     17       2.00000          -6.420559         -174.71231
     18       2.00000          -5.863661         -159.55832
     19       2.00000          -5.863661         -159.55832
     20       2.00000          -5.863661         -159.55832
     21       2.00000          -5.819696         -158.36199
     22       2.00000          -5.819696         -158.36199
     23       2.00000          -5.819696         -158.36199
     24       2.00000          -5.819696         -158.36198
     25       2.00000          -5.817772         -158.30962
     26       2.00000          -5.817772         -158.30962
     27       2.00000          -5.817772         -158.30962
     28       2.00000          -5.817772         -158.30962
     29       2.00000          -5.817772         -158.30962
     30       2.00000          -5.817772         -158.30962
     31       2.00000          -5.817772         -158.30962
     32       2.00000          -5.817772         -158.30962
     33       2.00000          -4.635598         -126.14103
     34       2.00000          -4.635598         -126.14103
     35       2.00000          -4.635598         -126.14103
     36       2.00000          -1.930622          -52.53490
     37       2.00000          -1.930351          -52.52753
     38       2.00000          -1.930351          -52.52753
     39       2.00000          -1.930351          -52.52752
     40       2.00000          -1.930227          -52.52415
     41       2.00000          -1.930227          -52.52415
     42       2.00000          -0.880436          -23.95789
     43       2.00000          -0.790909          -21.52174
     44       2.00000          -0.779260          -21.20474
     45       2.00000          -0.767948          -20.89692
     46       2.00000          -0.767948          -20.89692
     47       2.00000          -0.767948          -20.89692
     48       2.00000          -0.600969          -16.35319
     49       2.00000          -0.488278          -13.28672
     50       2.00000          -0.488278          -13.28671
     51       2.00000          -0.488277          -13.28671
     52       2.00000          -0.436824          -11.88658
     53       2.00000          -0.436824          -11.88657
     54       2.00000          -0.436823          -11.88657
     55       2.00000          -0.406823          -11.07021
     56       2.00000          -0.406823          -11.07021
     57       2.00000          -0.383026          -10.42267
     58       2.00000          -0.383026          -10.42266
     59       2.00000          -0.383026          -10.42266
     60       2.00000          -0.344863           -9.38420
     61       2.00000          -0.344863           -9.38420
     62       2.00000          -0.344863           -9.38420
     63       2.00000          -0.343912           -9.35832
     64       2.00000          -0.343912           -9.35831
     65       2.00000          -0.343912           -9.35831
     66       0.00000          -0.204939           -5.57668
     67       0.00000          -0.152098           -4.13879
     68       0.00000          -0.152097           -4.13878
     69       0.00000          -0.152097           -4.13877
     70       0.00000          -0.142139           -3.86781
     71       0.00000          -0.101680           -2.76686
     72       0.00000          -0.101680           -2.76684
     73       0.00000          -0.101679           -2.76684
     74       0.00000          -0.055142           -1.50049
     75       0.00000          -0.055141           -1.50047
     76       0.00000          -0.046557           -1.26687
     77       0.00000          -0.046555           -1.26682
     78       0.00000          -0.046554           -1.26681
     79       0.00000          -0.015064           -0.40992
     80       0.00000          -0.015064           -0.40991
     81       0.00000           0.042340            1.15213
     82       0.00000           0.042344            1.15224
     83       0.00000           0.042345            1.15225
     84       0.00000           0.063676            1.73272
     85       0.00000           0.063677            1.73273
     86       0.00000           0.067910            1.84793
     87       0.00000           0.072547            1.97409
     88       0.00000           0.072547            1.97411
     89       0.00000           0.072548            1.97413
     90       0.00000           0.075371            2.05095
     91       0.00000           0.075372            2.05097
     92       0.00000           0.075373            2.05101
     93       0.00000           0.091346            2.48565
     94       0.00000           0.091347            2.48567
     95       0.00000           0.091348            2.48570

  What follows are estimated values for band gap, HOMO, LUMO, etc.
  | They are estimated on a discrete k-point grid and not necessarily exact.
  | For converged numbers, create a DOS and/or band structure plot on a denser k-grid.

  Highest occupied state (VBM) at     -9.33319717 eV (relative to internal zero)
  | Occupation number:      2.00000000
  | K-point:       4 at    0.000000    0.333333    0.666667 (in units of recip. lattice)

  Lowest unoccupied state (CBM) at    -5.57668432 eV (relative to internal zero)
  | Occupation number:      0.00000000
  | K-point:       1 at    0.000000    0.000000    0.000000 (in units of recip. lattice)

  ESTIMATED overall HOMO-LUMO gap:      3.75651285 eV between HOMO at k-point 4 and LUMO at k-point 1
  | This appears to be an indirect band gap.
  | Smallest direct gap :      3.78162759 eV for k_point 1 at    0.000000    0.000000    0.000000 (in units of recip. lattice)
  The gap value is above 0.2 eV. Unless you are using a very sparse k-point grid,
  this system is most likely an insulator or a semiconductor.
  Calculating total energy contributions from superposition of free atom densities.

  Total energy components:
  | Sum of eigenvalues            :       -1638.01643554 Ha      -44572.69504469 eV
  | XC energy correction          :        -190.37214161 Ha       -5180.28954347 eV
  | XC potential correction       :         245.96030236 Ha        6692.92035937 eV
  | Free-atom electrostatic energy:       -1254.86487900 Ha      -34146.61071798 eV
  | Hartree energy correction     :           0.00000000 Ha           0.00000000 eV
  | Entropy correction            :          -0.00000000 Ha          -0.00000000 eV
  | ---------------------------
  | Total energy                  :       -2837.29315378 Ha      -77206.67494677 eV
  | Total energy, T -> 0          :       -2837.29315378 Ha      -77206.67494677 eV  <-- do not rely on this value for anything but (periodic) metals
  | Electronic free energy        :       -2837.29315378 Ha      -77206.67494677 eV

  Derived energy quantities:
  | Kinetic energy                :        2833.85173989 Ha       77113.02931026 eV
  | Electrostatic energy          :       -5480.77275206 Ha     -149139.41471356 eV
  | Energy correction for multipole
  | error in Hartree potential    :           0.00000000 Ha           0.00000000 eV
  | Sum of eigenvalues per atom                           :       -3428.66884959 eV
  | Total energy (T->0) per atom                          :       -5938.97499591 eV  <-- do not rely on this value for anything but (periodic) metals
  | Electronic free energy per atom                       :       -5938.97499591 eV
  Initialize hartree_potential_storage
  Max. number of atoms included in rho_multipole:           13

  End scf initialization - timings             :  max(cpu_time)    wall_clock(cpu1)
  | Time for scf. initialization               :      212.100 s         212.343 s
  | Boundary condition initialization          :        0.512 s           0.536 s
  | Integration                                :      184.166 s         184.381 s
  | Solution of K.-S. eqns.                    :        1.324 s           1.325 s
  | Grid partitioning                          :        3.001 s           3.001 s
  | Preloading free-atom quantities on grid    :        0.014 s           0.014 s
  | Free-atom superposition energy             :        2.438 s           2.438 s
  | Total energy evaluation                    :        0.000 s           0.000 s

  Partial memory accounting:
  | Current value for overall tracked memory usage on task 0  :          56.082 MB
  | Peak value for overall tracked memory usage on task 0     :          98.708 MB after allocating wave
  | Largest tracked array allocation on task 0 so far         :          30.482 MB  when allocating hamiltonian_shell
  Note:  These values currently only include a subset of arrays which are explicitly tracked.
  The "true" memory usage will be greater.
------------------------------------------------------------

------------------------------------------------------------
          Begin self-consistency iteration #    1

  Date     :  20220223, Time     :  000332.503
------------------------------------------------------------
  Evaluating new KS density using the density matrix
  Evaluating density matrix
  Time summed over all CPUs for getting density from density matrix: real work      710.627 s, elapsed      710.627 s
  Integration grid: deviation in total charge (<rho> - N_e) =  -7.958079E-13
  Pulay mixing of updated and previous charge densities.

  Evaluating partitioned Hartree potential by multipole expansion.
  | Analytical far-field extrapolation by fixed multipoles:
  | Hartree multipole sum: apparent total charge =   0.123597E-02
  Summing up the Hartree potential.
  | Estimated reciprocal-space cutoff momentum G_max:         2.61933636 bohr^-1 .
  | Reciprocal lattice points for long-range Hartree potential:     530
  Time summed over all CPUs for potential: real work       76.954 s, elapsed       76.954 s
  | RMS charge density error from multipole expansion :   0.542913E-03
  | Average real-space part of the electrostatic potential :      0.01871421 eV

  Integrating Hamiltonian matrix: batch-based integration.
  Time summed over all CPUs for integration: real work      422.479 s, elapsed      422.479 s

  Updating Kohn-Sham eigenvalues and eigenvectors using ELSI and the ELPA eigensolver.
  Finished Cholesky decomposition
  | Time :     0.008 s
  Finished transformation to standard eigenproblem
  | Time :     0.014 s
  Starting LAPACK eigensolver
  Finished solving standard eigenproblem
  | Time :     0.030 s
  Finished back-transformation of eigenvectors
  | Time :     0.002 s

  Obtaining occupation numbers and chemical potential using ELSI.
  | Chemical potential (Fermi level):    -9.24710382eV
  Writing Kohn-Sham eigenvalues.
  K-point:       1 at    0.000000    0.000000    0.000000 (in units of recip. lattice)

  State    Occupation    Eigenvalue [Ha]    Eigenvalue [eV]
      1       2.00000        -100.719122        -2740.70674
      2       2.00000         -88.203172        -2400.13043
      3       2.00000         -88.167533        -2399.16064
      4       2.00000         -88.167533        -2399.16063
      5       2.00000         -88.167533        -2399.16063
      6       2.00000         -88.167533        -2399.16063
      7       2.00000         -76.417317        -2079.42100
      8       2.00000          -9.233128         -251.24620
      9       2.00000          -7.834367         -213.18398
     10       2.00000          -7.797245         -212.17384
     11       2.00000          -7.797245         -212.17384
     12       2.00000          -7.797245         -212.17384
     13       2.00000          -7.797245         -212.17384
     14       2.00000          -7.049802         -191.83488
     15       2.00000          -7.049802         -191.83488
     16       2.00000          -7.049802         -191.83488
     17       2.00000          -6.426374         -174.87052
     18       2.00000          -5.851485         -159.22701
     19       2.00000          -5.851485         -159.22701
     20       2.00000          -5.851485         -159.22701
     21       2.00000          -5.815958         -158.26026
     22       2.00000          -5.815958         -158.26026
     23       2.00000          -5.815958         -158.26026
     24       2.00000          -5.815957         -158.26025
     25       2.00000          -5.813769         -158.20071
     26       2.00000          -5.813769         -158.20071
     27       2.00000          -5.813769         -158.20071
     28       2.00000          -5.813769         -158.20071
     29       2.00000          -5.813769         -158.20070
     30       2.00000          -5.813769         -158.20070
     31       2.00000          -5.813769         -158.20070
     32       2.00000          -5.813769         -158.20070
     33       2.00000          -4.641539         -126.30269
     34       2.00000          -4.641539         -126.30269
     35       2.00000          -4.641539         -126.30269
     36       2.00000          -1.930369          -52.52803
     37       2.00000          -1.930100          -52.52070
     38       2.00000          -1.930100          -52.52070
     39       2.00000          -1.930100          -52.52069
     40       2.00000          -1.929977          -52.51734
     41       2.00000          -1.929977          -52.51733
     42       2.00000          -0.880596          -23.96223
     43       2.00000          -0.784575          -21.34938
     44       2.00000          -0.777164          -21.14771
     45       2.00000          -0.766864          -20.86744
     46       2.00000          -0.766864          -20.86744
     47       2.00000          -0.766864          -20.86743
     48       2.00000          -0.600821          -16.34916
     49       2.00000          -0.488053          -13.28059
     50       2.00000          -0.488053          -13.28059
     51       2.00000          -0.488052          -13.28058
     52       2.00000          -0.431785          -11.74947
     53       2.00000          -0.431785          -11.74946
     54       2.00000          -0.431785          -11.74946
     55       2.00000          -0.405892          -11.04488
     56       2.00000          -0.405891          -11.04487
     57       2.00000          -0.382052          -10.39615
     58       2.00000          -0.382051          -10.39615
     59       2.00000          -0.382051          -10.39614
     60       2.00000          -0.343399           -9.34437
     61       2.00000          -0.343399           -9.34437
     62       2.00000          -0.343399           -9.34436
     63       2.00000          -0.342591           -9.32238
     64       2.00000          -0.342591           -9.32238
     65       2.00000          -0.342591           -9.32238
     66       0.00000          -0.205186           -5.58340
     67       0.00000          -0.152416           -4.14745
     68       0.00000          -0.152416           -4.14744
     69       0.00000          -0.152415           -4.14743
     70       0.00000          -0.141177           -3.84163
     71       0.00000          -0.100138           -2.72491
     72       0.00000          -0.100138           -2.72489
     73       0.00000          -0.100138           -2.72488
     74       0.00000          -0.054717           -1.48893
     75       0.00000          -0.054716           -1.48891
     76       0.00000          -0.045371           -1.23462
     77       0.00000          -0.045369           -1.23456
     78       0.00000          -0.045369           -1.23455
     79       0.00000          -0.013098           -0.35642
     80       0.00000          -0.013098           -0.35641
     81       0.00000           0.042977            1.16946
     82       0.00000           0.042981            1.16957
     83       0.00000           0.042982            1.16959
     84       0.00000           0.064907            1.76620
     85       0.00000           0.064907            1.76621
     86       0.00000           0.069032            1.87847
     87       0.00000           0.073092            1.98894
     88       0.00000           0.073093            1.98896
     89       0.00000           0.073094            1.98898
     90       0.00000           0.076226            2.07422
     91       0.00000           0.076227            2.07425
     92       0.00000           0.076229            2.07428
     93       0.00000           0.092633            2.52067
     94       0.00000           0.092634            2.52069
     95       0.00000           0.092635            2.52072

  What follows are estimated values for band gap, HOMO, LUMO, etc.
  | They are estimated on a discrete k-point grid and not necessarily exact.
  | For converged numbers, create a DOS and/or band structure plot on a denser k-grid.

  Highest occupied state (VBM) at     -9.29650776 eV (relative to internal zero)
  | Occupation number:      2.00000000
  | K-point:       4 at    0.000000    0.333333    0.666667 (in units of recip. lattice)

  Lowest unoccupied state (CBM) at    -5.58340485 eV (relative to internal zero)
  | Occupation number:      0.00000000
  | K-point:       1 at    0.000000    0.000000    0.000000 (in units of recip. lattice)

  ESTIMATED overall HOMO-LUMO gap:      3.71310292 eV between HOMO at k-point 4 and LUMO at k-point 1
  | This appears to be an indirect band gap.
  | Smallest direct gap :      3.73897493 eV for k_point 1 at    0.000000    0.000000    0.000000 (in units of recip. lattice)
  The gap value is above 0.2 eV. Unless you are using a very sparse k-point grid,
  this system is most likely an insulator or a semiconductor.

  Total energy components:
  | Sum of eigenvalues            :       -1637.66421580 Ha      -44563.11065793 eV
  | XC energy correction          :        -190.40289277 Ha       -5181.12632500 eV
  | XC potential correction       :         245.99971167 Ha        6693.99274107 eV
  | Free-atom electrostatic energy:       -1254.86487900 Ha      -34146.61071798 eV
  | Hartree energy correction     :          -0.35028247 Ha          -9.53167104 eV
  | Entropy correction            :          -0.00000000 Ha          -0.00000000 eV
  | ---------------------------
  | Total energy                  :       -2837.28255837 Ha      -77206.38663088 eV
  | Total energy, T -> 0          :       -2837.28255837 Ha      -77206.38663088 eV  <-- do not rely on this value for anything but (periodic) metals
  | Electronic free energy        :       -2837.28255837 Ha      -77206.38663088 eV

  Derived energy quantities:
  | Kinetic energy                :        2834.05616606 Ha       77118.59202932 eV
  | Electrostatic energy          :       -5480.93583166 Ha     -149143.85233519 eV
  | Energy correction for multipole
  | error in Hartree potential    :          -0.00094167 Ha          -0.02562408 eV
  | Sum of eigenvalues per atom                           :       -3427.93158907 eV
  | Total energy (T->0) per atom                          :       -5938.95281776 eV  <-- do not rely on this value for anything but (periodic) metals
  | Electronic free energy per atom                       :       -5938.95281776 eV

  Self-consistency convergence accuracy:
  | Change of charge density      :  0.2873E+00
  | Change of sum of eigenvalues  :  0.9584E+01 eV
  | Change of total energy        :  0.2883E+00 eV

  End self-consistency iteration #     1       :  max(cpu_time)    wall_clock(cpu1)
  | Time for this iteration                    :      305.178 s         305.232 s
  | Charge density update                      :      171.717 s         171.764 s
  | Density mixing & preconditioning           :       11.807 s          11.807 s
  | Hartree multipole update                   :        0.022 s           0.022 s
  | Hartree multipole summation                :       18.651 s          18.654 s
  | Integration                                :      102.052 s         102.056 s
  | Solution of K.-S. eqns.                    :        0.928 s           0.928 s
  | Total energy evaluation                    :        0.000 s           0.000 s

  Partial memory accounting:
  | Current value for overall tracked memory usage on task 0  :          56.082 MB
  | Peak value for overall tracked memory usage on task 0     :          98.745 MB after allocating gradient_basis_wave
  | Largest tracked array allocation on task 0 so far         :          30.482 MB  when allocating hamiltonian_shell
  Note:  These values currently only include a subset of arrays which are explicitly tracked.
  The "true" memory usage will be greater.
------------------------------------------------------------

------------------------------------------------------------
          Begin self-consistency iteration #    2

  Date     :  20220223, Time     :  000837.738
------------------------------------------------------------
  Evaluating new KS density using the density matrix
  Evaluating density matrix
  Time summed over all CPUs for getting density from density matrix: real work      708.609 s, elapsed      708.609 s
  Integration grid: deviation in total charge (<rho> - N_e) =  -9.094947E-13
  Pulay mixing of updated and previous charge densities.

  Evaluating partitioned Hartree potential by multipole expansion.
  | Analytical far-field extrapolation by fixed multipoles:
  | Hartree multipole sum: apparent total charge =   0.164017E-01
  Summing up the Hartree potential.
  Time summed over all CPUs for potential: real work       87.081 s, elapsed       87.081 s
  | RMS charge density error from multipole expansion :   0.745639E-02
  | Average real-space part of the electrostatic potential :      0.25373346 eV

  Integrating Hamiltonian matrix: batch-based integration.
[...]
  |   Free atom volume        :     76.98066615
  |   Hirshfeld volume        :     75.86748605
  |   Hirshfeld dipole vector :      0.00000000       0.00001109       0.00001550
  |   Hirshfeld dipole moment :      0.00001905
  |   Hirshfeld second moments:     -0.07296402      -0.00000000      -0.00000000
  |                                 -0.00000000      -0.07294897      -0.00005332
  |                                 -0.00000000      -0.00005332      -0.07294462
  ----------------------------------------------------------------------
  | Atom    13: Cl
  |   Hirshfeld charge        :     -0.18450113
  |   Free atom volume        :     66.13469196
  |   Hirshfeld volume        :     62.98852959
  |   Hirshfeld dipole vector :      0.00000000      -0.00000061       0.00002976
  |   Hirshfeld dipole moment :      0.00002977
  |   Hirshfeld second moments:      0.02108705       0.00000000       0.00000000
  |                                  0.00000000       0.02114058      -0.00000435
  |                                  0.00000000      -0.00000435       0.02113455
  ----------------------------------------------------------------------

  | Many-Body Dispersion (MBD@rsSCS) energy
  | Total dynamic anisotropic polarizability, \alpha_{ij}(iu), (a.u.)
  | -------------------------------------------------------------------
  |      u            xx         yy         zz         yz         xz         xy
  |   0.000000    549.416    549.419    549.418      0.002     -0.000     -0.000
   Negative alpha! Aborting this iteration
  | --------------------------------------------------------------

  Total energy components:
  | Sum of eigenvalues            :       -1633.96019510 Ha      -44462.31912651 eV
  | XC energy correction          :        -190.81363525 Ha       -5192.30319661 eV
  | XC potential correction       :         246.52278285 Ha        6708.22623218 eV
  | Free-atom electrostatic energy:       -1254.86487900 Ha      -34146.61071798 eV
  | Hartree energy correction     :          -4.10455955 Ha        -111.69074808 eV
  | Entropy correction            :          -0.00000000 Ha          -0.00000000 eV
  | ---------------------------
  | Total energy                  :       -2837.22048604 Ha      -77204.69755699 eV
  | Total energy, T -> 0          :       -2837.22048604 Ha      -77204.69755699 eV  <-- do not rely on this value for anything but (periodic) metals
  | Electronic free energy        :       -2837.22048604 Ha      -77204.69755699 eV

  Derived energy quantities:
  | Kinetic energy                :        2834.66512059 Ha       77135.16252520 eV
  | Electrostatic energy          :       -5481.07197139 Ha     -149147.55688559 eV
  | Energy correction for multipole
  | error in Hartree potential    :          -0.02099520 Ha          -0.57130855 eV
  | Sum of eigenvalues per atom                           :       -3420.17839435 eV
  | Total energy (T->0) per atom                          :       -5938.82288900 eV  <-- do not rely on this value for anything but (periodic) metals
  | Electronic free energy per atom                       :       -5938.82288900 eV

  atomic forces [eV/Ang]:
  -----------------------
  atom #    1
   Hellmann-Feynman              : -0.109450E+00 -0.634573E-01  0.893387E-01
   Ionic forces                  :  0.000000E+00  0.000000E+00  0.000000E+00
   Multipole                     : -0.101437E-01 -0.571000E-02  0.821036E-02
   Pulay + GGA                   :  0.550384E-01  0.318183E-01 -0.446943E-01
   Van der Waals                 :  0.000000E+00  0.000000E+00  0.000000E+00
   ----------------------------------------------------------------
   Total forces(   1)            : -0.645553E-01 -0.373490E-01  0.528547E-01
  atom #    2
   Hellmann-Feynman              :  0.109231E+00  0.635961E-01 -0.896189E-01
   Ionic forces                  :  0.000000E+00  0.000000E+00  0.000000E+00
   Multipole                     :  0.100842E-01  0.550930E-02 -0.822313E-02
   Pulay + GGA                   : -0.546201E-01 -0.318273E-01  0.449668E-01
   Van der Waals                 :  0.000000E+00  0.000000E+00  0.000000E+00
   ----------------------------------------------------------------
   Total forces(   2)            :  0.646946E-01  0.372781E-01 -0.528752E-01
  atom #    3
   Hellmann-Feynman              :  0.109450E+00 -0.634573E-01  0.893386E-01
   Ionic forces                  :  0.000000E+00  0.000000E+00  0.000000E+00
   Multipole                     :  0.101437E-01 -0.570999E-02  0.821036E-02
   Pulay + GGA                   : -0.550384E-01  0.318183E-01 -0.446943E-01
   Van der Waals                 :  0.000000E+00  0.000000E+00  0.000000E+00
   ----------------------------------------------------------------
   Total forces(   3)            :  0.645551E-01 -0.373491E-01  0.528546E-01
  atom #    4
   Hellmann-Feynman              : -0.109231E+00  0.635962E-01 -0.896188E-01
   Ionic forces                  :  0.000000E+00  0.000000E+00  0.000000E+00
   Multipole                     : -0.100842E-01  0.550929E-02 -0.822314E-02
   Pulay + GGA                   :  0.546201E-01 -0.318273E-01  0.449668E-01
   Van der Waals                 :  0.000000E+00  0.000000E+00  0.000000E+00
   ----------------------------------------------------------------
   Total forces(   4)            : -0.646948E-01  0.372782E-01 -0.528752E-01
  atom #    5
   Hellmann-Feynman              :  0.151185E-07 -0.126526E+00 -0.891853E-01
   Ionic forces                  :  0.000000E+00  0.000000E+00  0.000000E+00
   Multipole                     : -0.295381E-08 -0.115792E-01 -0.815486E-02
   Pulay + GGA                   : -0.415720E-08  0.633868E-01  0.445658E-01
   Van der Waals                 :  0.000000E+00  0.000000E+00  0.000000E+00
   ----------------------------------------------------------------
   Total forces(   5)            :  0.800751E-08 -0.747183E-01 -0.527744E-01
  atom #    6
   Hellmann-Feynman              : -0.126434E-06  0.126997E+00  0.904458E-01
   Ionic forces                  :  0.000000E+00  0.000000E+00  0.000000E+00
   Multipole                     :  0.826606E-08  0.116534E-01  0.798709E-02
   Pulay + GGA                   :  0.168808E-07 -0.638797E-01 -0.457223E-01
   Van der Waals                 :  0.000000E+00  0.000000E+00  0.000000E+00
   ----------------------------------------------------------------
   Total forces(   6)            : -0.101287E-06  0.747705E-01  0.527106E-01
  atom #    7
   Hellmann-Feynman              : -0.895034E-06 -0.145155E-02  0.109219E-02
   Ionic forces                  :  0.000000E+00  0.000000E+00  0.000000E+00
   Multipole                     : -0.747334E-07  0.148700E-02  0.341986E-03
   Pulay + GGA                   : -0.146072E-06 -0.371927E-04 -0.160406E-02
   Van der Waals                 :  0.000000E+00  0.000000E+00  0.000000E+00
   ----------------------------------------------------------------
   Total forces(   7)            : -0.111584E-05 -0.174597E-05 -0.169884E-03
  atom #    8
   Hellmann-Feynman              : -0.121039E+02  0.699372E+01  0.493954E+01
   Ionic forces                  :  0.000000E+00  0.000000E+00  0.000000E+00
   Multipole                     :  0.345544E+00 -0.198599E+00 -0.140912E+00
   Pulay + GGA                   :  0.996767E+01 -0.576108E+01 -0.406752E+01
   Van der Waals                 :  0.000000E+00  0.000000E+00  0.000000E+00
   ----------------------------------------------------------------
   Total forces(   8)            : -0.179073E+01  0.103404E+01  0.731111E+00
  atom #    9
   Hellmann-Feynman              : -0.158273E-06  0.114557E-02 -0.148283E+02
   Ionic forces                  :  0.000000E+00  0.000000E+00  0.000000E+00
   Multipole                     : -0.946664E-08  0.171859E-02  0.424427E+00
   Pulay + GGA                   :  0.377045E-06 -0.282653E-02  0.122104E+02
   Van der Waals                 :  0.000000E+00  0.000000E+00  0.000000E+00
   ----------------------------------------------------------------
   Total forces(   9)            :  0.209306E-06  0.376351E-04 -0.219346E+01
  atom #   10
   Hellmann-Feynman              : -0.177718E-06 -0.139808E+02  0.494539E+01
   Ionic forces                  :  0.000000E+00  0.000000E+00  0.000000E+00
   Multipole                     : -0.979450E-08  0.401892E+00 -0.139943E+00
   Pulay + GGA                   :  0.389408E-06  0.115116E+02 -0.407442E+01
   Van der Waals                 :  0.000000E+00  0.000000E+00  0.000000E+00
   ----------------------------------------------------------------
   Total forces(  10)            :  0.201895E-06 -0.206732E+01  0.731023E+00
  atom #   11
   Hellmann-Feynman              :  0.121039E+02  0.699372E+01  0.493954E+01
   Ionic forces                  :  0.000000E+00  0.000000E+00  0.000000E+00
   Multipole                     : -0.345544E+00 -0.198599E+00 -0.140912E+00
   Pulay + GGA                   : -0.996767E+01 -0.576108E+01 -0.406752E+01
   Van der Waals                 :  0.000000E+00  0.000000E+00  0.000000E+00
   ----------------------------------------------------------------
   Total forces(  11)            :  0.179073E+01  0.103404E+01  0.731111E+00
  atom #   12
   Hellmann-Feynman              :  0.455001E-08 -0.107107E-02  0.246850E-02
   Ionic forces                  :  0.000000E+00  0.000000E+00  0.000000E+00
   Multipole                     :  0.759352E-08  0.556844E-03 -0.244282E-02
   Pulay + GGA                   : -0.178413E-08  0.566977E-03 -0.993932E-04
   Van der Waals                 :  0.000000E+00  0.000000E+00  0.000000E+00
   ----------------------------------------------------------------
   Total forces(  12)            :  0.103594E-07  0.527521E-04 -0.737125E-04
  atom #   13
   Hellmann-Feynman              : -0.583594E-06  0.160504E-02 -0.499506E-03
   Ionic forces                  :  0.000000E+00  0.000000E+00  0.000000E+00
   Multipole                     :  0.147395E-09  0.152483E-04 -0.205866E-04
   Pulay + GGA                   :  0.539281E-06 -0.169335E-02  0.418829E-03
   Van der Waals                 :  0.000000E+00  0.000000E+00  0.000000E+00
   ----------------------------------------------------------------
   Total forces(  13)            : -0.441649E-07 -0.730594E-04 -0.101264E-03

  Timings for VdW correction (Tkatchenko-Scheffler 2009 or later):
  | CPU time:       92.780 s, Wall clock time:       92.780 s.
  Removing unitary transformations (pure translations, rotations) from forces on atoms.
  Atomic forces before filtering:
  | Net force on center of mass :   0.279302E-07  0.683815E-03 -0.662984E-03 eV/A
  Atomic forces after filtering:
  | Net force on center of mass :  -0.232160E-15 -0.238514E-15 -0.813412E-16 eV/A

  Energy and forces in a compact form:
  | Total energy uncorrected      :         -0.772046975569909E+05 eV
  | Total energy corrected        :         -0.772046975569909E+05 eV  <-- do not rely on this value for anything but (periodic) metals
  | Electronic free energy        :         -0.772046975569909E+05 eV
  Total atomic forces (unitary forces cleaned) [eV/Ang]:
  |   1         -0.645553116418690E-01         -0.374016383207879E-01          0.529057271774094E-01
  |   2          0.646945940918122E-01          0.372255375804700E-01         -0.528241594772398E-01
  |   3          0.645551462253605E-01         -0.374016615097790E-01          0.529056261733221E-01
  |   4         -0.646947596276241E-01          0.372256405630471E-01         -0.528241709233418E-01
  |   5          0.585903093315194E-08         -0.747709208339468E-01         -0.527234461271840E-01
  |   6         -0.103435240054209E-06          0.747179297206847E-01          0.527615991926420E-01
  |   7         -0.111798750925323E-05         -0.543471076158401E-04         -0.118885222438820E-03
  |   8         -0.179073266461746E+01          0.103398623252778E+01          0.731161555247084E+00
  |   9          0.207157079133288E-06         -0.149659975377172E-04         -0.219340680407129E+01
  |  10          0.199746181952909E-06         -0.206737297013701E+01          0.731074048143487E+00
  |  11          0.179073384233268E+01          0.103398667308761E+01          0.731161888287723E+00
  |  12          0.821091633423679E-08          0.150949351359750E-06         -0.227136485779210E-04
  |  13         -0.463133579828343E-07         -0.125660522259110E-03         -0.502647515946832E-04

  ------------------------------------ 
  Start decomposition of the XC Energy 
  ------------------------------------ 
  X and C from original XC functional choice 
  Hartree-Fock Energy :          0.000000000 Ha              0.000000000 eV
  X Energy            :       -185.920897954 Ha          -5059.165040809 eV
  C Energy            :         -4.892737295 Ha           -133.138155800 eV
  Total XC Energy     :       -190.813635249 Ha          -5192.303196609 eV
  ------------------------------------ 
  LDA X and C from self-consistent density 
  X Energy LDA        :       -172.037482072 Ha          -4681.378073080 eV
  C Energy LDA        :         -9.809445711 Ha           -266.928598965 eV
  ------------------------------------ 
  End decomposition of the XC Energy 
  ------------------------------------ 

------------------------------------------------------------

------------------------------------------------------------------------------
  Final output of selected total energy values:

  The following output summarizes some interesting total energy values
  at the end of a run (AFTER all relaxation, molecular dynamics, etc.).

  | Total energy of the DFT / Hartree-Fock s.c.f. calculation      :         -77204.697556991 eV
  | Final zero-broadening corrected energy (caution - metals only) :         -77204.697556991 eV
  | For reference only, the value of 1 Hartree used in FHI-aims is :             27.211384500 eV

  Before relying on these values, please be sure to understand exactly which
  total energy value is referred to by a given number. Different objects may
  all carry the same name 'total energy'. Definitions:

  Total energy of the DFT / Hartree-Fock s.c.f. calculation:
  | Note that this energy does not include ANY quantities calculated after the
  | s.c.f. cycle, in particular not ANY RPA, MP2, etc. many-body perturbation terms.

  Final zero-broadening corrected energy:
  | For metallic systems only, a broadening of the occupation numbers at the Fermi
  | level can be extrapolated back to zero broadening by an electron-gas inspired
  | formula. For all systems that are not real metals, this value can be
  | meaningless and should be avoided.

------------------------------------------------------------------------------
  Methods described in the following list of references were used in this FHI-aims run.
  If you publish the results, please make sure to cite these reference if they apply.
  FHI-aims is an academic code, and for our developers (often, Ph.D. students
  and postdocs), scientific credit in the community is essential.
  Thank you for helping us!

  For any use of FHI-aims, please cite:

    Volker Blum, Ralf Gehrke, Felix Hanke, Paula Havu, Ville Havu,
    Xinguo Ren, Karsten Reuter, and Matthias Scheffler
    'Ab initio molecular simulations with numeric atom-centered orbitals'
    Computer Physics Communications 180, 2175-2196 (2009)
    http://dx.doi.org/10.1016/j.cpc.2009.06.022


  The provided symmetry information was generated with SPGlib:

    Atsushi Togo, Yusuke Seto, Dimitar Pashov
    SPGlib 1.7.3 obtained from http://spglib.sourceforge.net
    Copyright (C) 2008 Atsushi Togo


  The scalable eigensolver library ELPA was used in your run.
  ELPA is essential especially for large systems on hundreds or thousands of CPUs.
  For ELPA, please cite:

    Andreas Marek, Volker Blum, Rainer Johanni, Ville Havu, Bruno Lang,
    Thomas Auckenthaler, Alexander Heinecke, Hans-Joachim Bungartz, and Hermann Lederer,
    'The ELPA Library - Scalable Parallel Eigenvalue Solutions
    for Electronic Structure Theory and Computational Science'
    The Journal of Physics: Condensed Matter 26, 213201 (2014).
    http://dx.doi.org/10.1088/0953-8984/26/21/213201


  The ELSI infrastructure was used in your run to solve the Kohn-Sham electronic structure.
  Please check out http://elsi-interchange.org to learn more.
  If scalability is important for your project, please acknowledge ELSI by citing:

    V. W-z. Yu, F. Corsetti, A. Garcia, W. P. Huhn, M. Jacquelin, W. Jia,
    B. Lange, L. Lin, J. Lu, W. Mi, A. Seifitokaldani, A. Vazquez-Mayagoitia,
    C. Yang, H. Yang, and V. Blum
    'ELSI: A unified software interface for Kohn-Sham electronic structure solvers'
    Computer Physics Communications 222, 267-285 (2018).
    http://dx.doi.org/10.1016/j.cpc.2017.09.007


  For the real-space grid partitioning and parallelization used in this calculation, please cite:

    Ville Havu, Volker Blum, Paula Havu, and Matthias Scheffler,
    'Efficient O(N) integration for all-electron electronic structure calculation'
    'using numerically tabulated basis functions'
    Journal of Computational Physics 228, 8367-8379 (2009).
    http://dx.doi.org/10.1016/j.jcp.2009.08.008

  Of course, there are many other important community references, e.g., those cited in the
  above references. Our list is limited to references that describe implementations in the
  FHI-aims code. The reason is purely practical (length of this list) - please credit others as well.

------------------------------------------------------------
          Leaving FHI-aims.
          Date     :  20220223, Time     :  015808.612

          Computational steps:
          | Number of self-consistency cycles          :           17
          | Number of SCF (re)initializations          :            1

          Detailed time accounting                     :  max(cpu_time)    wall_clock(cpu1)
          | Total time                                 :     7081.773 s        7088.992 s
          | Preparation time                           :        0.316 s           0.351 s
          | Boundary condition initalization           :        0.512 s           0.536 s
          | Grid partitioning                          :        3.001 s           3.001 s
          | Preloading free-atom quantities on grid    :        0.014 s           0.014 s
          | Free-atom superposition energy             :        2.438 s           2.438 s
          | Total time for integrations                :     1922.405 s        1925.020 s
          | Total time for solution of K.-S. equations :       17.365 s          17.389 s
          | Total time for density & force components  :     4335.903 s        4339.733 s
          | Total time for mixing & preconditioning    :      178.226 s         178.420 s
          | Total time for Hartree multipole update    :        0.421 s           0.424 s
          | Total time for Hartree multipole sum       :      507.502 s         507.852 s
          | Total time for total energy evaluation     :        0.003 s           0.000 s
          | Total time for vdW correction              :       92.780 s          92.780 s

          Partial memory accounting:
          | Residual value for overall tracked memory usage across tasks :           0.000 MB (should be 0.000 MB)
          | Peak values for overall tracked memory usage (after allocating wave_pulay):
          |   Minimum:      127.166 MB (on task 1)
          |   Maximum:      127.166 MB (on task 1)
          |   Average:      127.166 MB
          | Largest tracked array allocation (hamiltonian_shell):
          |   Minimum:       30.482 MB (on task 1)
          |   Maximum:       30.482 MB (on task 1)
          |   Average:       30.482 MB
          Note:  These values currently only include a subset of arrays which are explicitly tracked.
          The "true" memory usage will be greater.

          Have a nice day.
------------------------------------------------------------
