  MPI-parallelism will be employed.
------------------------------------------------------------
          Invoking FHI-aims ...
          Version 171221_1
          Compiled on 2020/11/22 at 19:48:33 on host core401.

          When using FHI-aims, please cite the following reference:

          Volker Blum, Ralf Gehrke, Felix Hanke, Paula Havu,
          Ville Havu, Xinguo Ren, Karsten Reuter, and Matthias Scheffler,
          'Ab Initio Molecular Simulations with Numeric Atom-Centered Orbitals',
          Computer Physics Communications 180, 2175-2196 (2009)

          For any questions about FHI-aims, please visit the aimsclub website
          with its forums and wiki. Contributions to both the forums and the
          wiki are warmly encouraged - they are for you, and everyone is welcome there.

------------------------------------------------------------



  Date     :  20220223, Time     :  122131.588
  Time zero on CPU 1             :   0.266560000000000E-01  s.
  Internal wall clock time zero  :           414850891.588  s.

  FHI-aims created a unique identifier for this run for later identification
  aims_uuid : 235EB621-BE63-467E-A5AF-6AADB2FE8A9D

  Using        1 parallel tasks.
  Task        0 on host core401 reporting.

  Performing system and environment tests:
  *** Environment variable OMP_NUM_THREADS is not set
  *** For performance reasons you might want to set it to 1
  | Maximum stacksize for task 0: unlimited
  | Current stacksize for task 0: unlimited
  | Checking for scalapack...
  | Testing pdtran()...
  | All pdtran() tests passed.

  Obtaining array dimensions for all initial allocations:
  
  -----------------------------------------------------------------------
  Parsing control.in (first pass over file, find array dimensions only).
  The contents of control.in will be repeated verbatim below
  unless switched off by setting 'verbatim_writeout .false.' .
  in the first line of control.in .
  -----------------------------------------------------------------------
  
  #===============================================================================
  # FHI-aims file: ./control.in
  # Created using the Atomic Simulation Environment (ASE)
  # Wed Mar 24 12:41:28 2021
  #===============================================================================
  xc                                 pbe
  # relax_geometry                     bfgs 1e-4
  sc_accuracy_etot                   1e-06
  sc_accuracy_eev                    0.001
  sc_accuracy_rho                    1e-06
  sc_accuracy_forces                 0.0001
  many_body_dispersion
  k_grid                             3 3 3
  
    #output band 0.0   0.0   0.0   0.5   0.5   0.0    10  Gamma M
    #output band 0.5   0.5   0.0   0.5   0.5   0.5    10  M     R
    #output band 0.5   0.5   0.5   0.0   0.5   0.0    10  R     X
  
    #output  dos              -18. 10. 200 0.1
    #output  species_proj_dos -18. 10. 200 0.1
  
  #===============================================================================
  
  ################################################################################
  #
  #  FHI-aims code project
  # Volker Blum, Fritz Haber Institute Berlin, 2009
  #
  #  Suggested "tight" defaults for Li atom (to be pasted into control.in file)
  #
  #  2016/03/22: Increased cutoff radius to 5.0 AA (Xinguo Ren, Aug 15, 2015)
  #
  ################################################################################
    species        Li
  #     global species definitions
      nucleus             3
      mass                6.941
  #
      l_hartree           6
  #
      cut_pot             5.0  2.0  1.0
      basis_dep_cutoff    1e-4
  #
      radial_base         29 7.0
      radial_multiplier   2
      angular_grids       specified
        division   0.4484  110
        division   0.5659  194
        division   0.6315  302
        division   0.6662  434
  #      division   0.8186  590
  #      division   0.9037  770
  #      division   6.2760  974
  #      outer_grid   974
        outer_grid  434
  ################################################################################
  #
  #  Definition of "minimal" basis
  #
  ################################################################################
  #     valence basis states
      valence      2  s   1.
  #     ion occupancy
      ion_occ      1  s   2.
  ################################################################################
  #
  #  Suggested additional basis functions. For production calculations,
  #  uncomment them one after another (the most important basis functions are
  #  listed first).
  #
  #  Constructed for dimers: 1.80 A, 2.25 A, 2.75 A, 3.50 A, 4.50 A
  #
  ################################################################################
  #  "First tier" - improvements: -189.23 meV to -6.35 meV
       hydro 2 p 1.6
       hydro 2 s 2
       hydro 3 d 2.6
  #  "Second tier" - improvements: -4.69 meV to -0.41 meV
       hydro 3 p 4.6
       hydro 2 p 1.8
       hydro 3 s 6.2
       hydro 4 d 4.7
       hydro 4 f 4.1
  #  "Third tier" - improvements: -0.20 meV to -0.15 meV
  #     hydro 4 d 0.95
  #     hydro 3 p 6.2
  #     hydro 3 s 1.7
  #  Further functions, listed for completeness
  #     VB: The following functions are only listed for completeness; test very
  #         carefully before any kind of production use. From the point of view
  #         of the basis construction, their main role is to fill up space,
  #         and they are solely determined by the location of the cutoff potential.
  #     hydro 3 p 0.1  # -0.15 meV
  #     hydro 4 d 5    # -0.12 meV
  #     hydro 4 f 0.1  # -0.14 meV
  #     hydro 5 g 0.1  # -0.06 meV
  
  
  ################################################################################
  #
  # For methods that use the localized form of the "resolution of identity" for
  # the two-electron Coulomb operator (RI_method LVL), particularly Hartree-Fock and
  # hybrid density functional calculations, the highest accuracy can be obtained by
  # uncommenting the line beginning with "for_aux"  below, thus adding an extra g radial
  # function to the construction of the product basis set for the expansion.
  # See Ref. New J. Phys. 17, 093020 (2015) for more information, particularly Figs. 1 and 6.
  #
  ################################################################################
  #
  # for_aux hydro 5 g 6.0
  ################################################################################
  #
  #  FHI-aims code project
  # Volker Blum, Fritz Haber Institute Berlin, 2010
  #
  #  Suggested "tight" defaults for P atom (to be pasted into control.in file)
  #
  #  Revised Jan 04, 2011, following tests (SiC) done by Lydia Nemec:
  #     d function of tier 2 now enabled by default.
  #
  ################################################################################
    species        P
  #     global species definitions
      nucleus             15
      mass                30.973762
  #
      l_hartree           6
  #
      cut_pot             4.0          2.0  1.0
      basis_dep_cutoff    1e-4
  #
      radial_base         43 7.0
      radial_multiplier   2
      angular_grids       specified
        division   0.2995   50
        division   0.5998  110
        division   0.9240  194
        division   1.0921  302
        division   1.2863  434
  #      division   1.3165  590
  #      division   1.4113  770
  #      division   1.5128  974
  #      division   2.4980 1202
        outer_grid  434
  ################################################################################
  #
  #  Definition of "minimal" basis
  #
  ################################################################################
  #     valence basis states
      valence      3  s   2.
      valence      3  p   3.
  #     ion occupancy
      ion_occ      3  s   1.
      ion_occ      3  p   2.
  ################################################################################
  #
  #  Suggested additional basis functions. For production calculations,
  #  uncomment them one after another (the most important basis functions are
  #  listed first).
  #
  #  Constructed for dimers: 1.625 A, 1.875 A, 2.5 A, 3.25 A, 4.0 A
  #
  ################################################################################
  #  "First tier" - improvements: -726.20 meV to -35.91 meV
       ionic 3 d auto
       ionic 3 p auto
       hydro 4 f 6.2
       hydro 5 g 8.6
       ionic 3 s auto
  #  "Second tier" - improvements: -16.02 meV to -1.71 meV
       hydro 4 d 6.2
  #     hydro 4 p 9.2
  #     hydro 5 f 9.8
  #     hydro 1 s 0.7
  #     hydro 5 g 13.2
  #  "Third tier" - improvements: -1.82 meV to -0.20 meV
  #     hydro 3 p 2.5
  #     hydro 4 d 6.4
  #     hydro 5 f 11.2
  #     hydro 2 s 1.5
  #  "Fourth tier" - improvements: -0.91 meV to -0.17 meV
  #     hydro 3 d 16.8
  #     hydro 5 g 18
  #     hydro 4 p 4.5
  #     hydro 3 s 2.1
  #  Further basis functions that fell out of the optimization - < -0.09 meV
  #     hydro 4 p 10.4
  #     hydro 4 d 17.6
  #     hydro 4 s 11.2
  ################################################################################
  #
  # For methods that use the localized form of the "resolution of identity" for
  # the two-electron Coulomb operator (RI_method LVL), particularly Hartree-Fock and
  # hybrid density functional calculations, the highest accuracy can be obtained by
  # uncommenting the line beginning with "for_aux"  below, thus adding an extra g radial
  # function to the construction of the product basis set for the expansion.
  # See Ref. New J. Phys. 17, 093020 (2015) for more information, particularly Figs. 1 and 6.
  #
  ################################################################################
  #
  # for_aux hydro 5 g 6.0
  ################################################################################
  #
  #  FHI-aims code project
  # Volker Blum, Fritz Haber Institute Berlin, 2009
  #
  #  Suggested "tight" defaults for S atom (to be pasted into control.in file)
  #
  #  Revised Jan 04, 2011, following tests (SiC) done by Lydia Nemec:
  #     d and g functions of tier 2 now enabled by default.
  #
  ################################################################################
    species        S
  #     global species definitions
      nucleus             16
      mass                32.065
  #
      l_hartree           6
  #
      cut_pot             4.0          2.0  1.0
      basis_dep_cutoff    1e-4
  #
      radial_base         44 7.0
      radial_multiplier   2
      angular_grids       specified
        division   0.4665  110
        division   0.5810  194
        division   0.7139  302
        division   0.8274  434
  #      division   0.9105  590
  #      division   1.0975  770
  #      division   1.2028  974
  #      outer_grid  974
        outer_grid  434
  ################################################################################
  #
  #  Definition of "minimal" basis
  #
  ################################################################################
  #     valence basis states
      valence      3  s   2.
      valence      3  p   4.
  #     ion occupancy
      ion_occ      3  s   1.
      ion_occ      3  p   3.
  ################################################################################
  #
  #  Suggested additional basis functions. For production calculations,
  #  uncomment them one after another (the most important basis functions are
  #  listed first).
  #
  #  Constructed for dimers: 1.6 A, 1.9 A, 2.5 A, 3.25 A, 4.0 A
  #
  ################################################################################
  #  "First tier" - improvements: -652.81 meV to -45.53 meV
       ionic 3 d auto
       hydro 2 p 1.8
       hydro 4 f 7
       ionic 3 s auto
  #  "Second tier" - improvements: -30.20 meV to -1.74 meV
       hydro 4 d 6.2
       hydro 5 g 10.8
  #     hydro 4 p 4.9
  #     hydro 5 f 10
  #     hydro 1 s 0.8
  #  "Third tier" - improvements: -1.04 meV to -0.20 meV
  #     hydro 3 d 3.9
  #     hydro 3 d 2.7
  #     hydro 5 g 12
  #     hydro 4 p 10.4
  #     hydro 5 f 12.4
  #     hydro 2 s 1.9
  #  "Fourth tier" - improvements: -0.35 meV to -0.06 meV
  #     hydro 4 d 10.4
  #     hydro 4 p 7.2
  #     hydro 4 d 10
  #     hydro 5 g 19.2
  #     hydro 4 s 12
  
  ################################################################################
  #
  # For methods that use the localized form of the "resolution of identity" for
  # the two-electron Coulomb operator (RI_method LVL), particularly Hartree-Fock and
  # hybrid density functional calculations, the highest accuracy can be obtained by
  # uncommenting the line beginning with "for_aux"  below, thus adding an extra g radial
  # function to the construction of the product basis set for the expansion.
  # See Ref. New J. Phys. 17, 093020 (2015) for more information, particularly Figs. 1 and 6.
  #
  ################################################################################
  #
  # for_aux hydro 5 g 6.0
  ################################################################################
  #
  #  FHI-aims code project
  # Volker Blum, Fritz Haber Institute Berlin, 2009
  #
  #  Suggested "tight" defaults for Cl atom (to be pasted into control.in file)
  #
  #  Revised Jan 04, 2011, following tests (SiC) done by Lydia Nemec:
  #     d function of tier 2 now enabled by default.
  #
  ################################################################################
    species        Cl
  #     global species definitions
      nucleus             17
      mass                35.453
  #
      l_hartree           6
  #
      cut_pot             4.0          2.0  1.0
      basis_dep_cutoff    1e-4
  #
      radial_base         45 7.0
      radial_multiplier   2
      angular_grids       specified
        division   0.4412  110
        division   0.5489  194
        division   0.6734  302
        division   0.7794  434
  #      division   0.9402  590
  #      division   1.0779  770
  #      division   1.1792  974
  #      outer_grid  974
        outer_grid  434
  ################################################################################
  #
  #  Definition of "minimal" basis
  #
  ################################################################################
  #     valence basis states
      valence      3  s   2.
      valence      3  p   5.
  #     ion occupancy
      ion_occ      3  s   1.
      ion_occ      3  p   4.
  ################################################################################
  #
  #  Suggested additional basis functions. For production calculations,
  #  uncomment them one after another (the most important basis functions are
  #  listed first).
  #
  #  Constructed for dimers: 1.65 A, 2.0 A, 2.5 A, 3.25 A, 4.0 A
  #
  ################################################################################
  #  "First tier" - improvements: -429.57 meV to -15.03 meV
       ionic 3 d auto
       hydro 2 p 1.9
       hydro 4 f 7.4
       ionic 3 s auto
       hydro 5 g 10.4
  #  "Second tier" - improvements: -7.84 meV to -0.48 meV
       hydro 3 d 3.3
  #     hydro 5 f 9.8
  #     hydro 1 s 0.75
  #     hydro 5 g 11.2
  #     hydro 4 p 10.4
  #  "Third tier" - improvements: -1.00 meV to -0.12 meV
  #     hydro 4 d 12.8
  #     hydro 4 f 4.6
  #     hydro 4 d 10.8
  #     hydro 2 s 1.8
  #     hydro 3 p 3
  #  Further functions that fell out - improvements: -0.10 meV and below
  #     hydro 5 f 14.4
  #     hydro 4 s 12.8
  #     hydro 3 d 11.6
  #     hydro 4 s 4.1
  ################################################################################
  #
  # For methods that use the localized form of the "resolution of identity" for
  # the two-electron Coulomb operator (RI_method LVL), particularly Hartree-Fock and
  # hybrid density functional calculations, the highest accuracy can be obtained by
  # uncommenting the line beginning with "for_aux"  below, thus adding an extra g radial
  # function to the construction of the product basis set for the expansion.
  # See Ref. New J. Phys. 17, 093020 (2015) for more information, particularly Figs. 1 and 6.
  #
  ################################################################################
  #
  # for_aux hydro 5 g 6.0
  
  
  -----------------------------------------------------------------------
  Completed first pass over input file control.in .
  -----------------------------------------------------------------------
  
  
  -----------------------------------------------------------------------
  Parsing geometry.in (first pass over file, find array dimensions only).
  The contents of geometry.in will be repeated verbatim below
  unless switched off by setting 'verbatim_writeout .false.' .
  in the first line of geometry.in .
  -----------------------------------------------------------------------
  
  #=======================================================
  # FHI-aims file: ./geo/geometry.in.7
  # Created using the Atomic Simulation Environment (ASE)
  # Tue Feb 22 23:54:07 2022
  #=======================================================
  lattice_vector 7.4140767948000006 0.0000000000000000 0.0000000000000000
  lattice_vector 3.7070383974000012 6.4207788499055063 0.0000000000000000
  lattice_vector 3.7070383974000012 2.1402596166351695 6.0535683536897933
  atom 2.0248807556582129 1.1690654493561621 2.8868680514860641 Li
  atom 5.3891960391417877 3.1114537839141763 0.1399161253588322 Li
  atom 5.3891960391417877 1.1690654493561621 2.8868680514860641 Li
  atom 2.0248807556582129 3.1114537839141763 0.1399161253588322 Li
  atom 3.7070383974000003 0.1978712820771547 0.1399161253588322 Li
  atom 3.7070383974000012 4.0826479511931835 2.8868680514860641 Li
  atom 7.4140767948000015 4.2805192332703381 3.0267841768448966 P
  atom 5.7010938683907781 5.2695103441447433 3.7261064978774052 S
  atom 7.4140767577296183 4.2805192118677429 0.9288171532116861 S
  atom 7.4140767577296183 2.3025369473137380 3.7261064978774052 S
  atom 9.1270596470684566 5.2695103441447433 3.7261064978774052 S
  atom 3.7070383974000007 2.1402596166351691 1.5133920884224483 S
  atom 0.0000000000000000 0.0000000000000000 0.0000000000000000 Cl
  
  -----------------------------------------------------------------------
  Completed first pass over input file geometry.in .
  -----------------------------------------------------------------------
  

  Basic array size parameters:
  | Number of species                 :        4
  | Number of atoms                   :       13
  | Number of lattice vectors         :        3
  | Max. basis fn. angular momentum   :        4
  | Max. atomic/ionic basis occupied n:        3
  | Max. number of basis fn. types    :        3
  | Max. radial fns per species/type  :        8
  | Max. logarithmic grid size        :     1362
  | Max. radial integration grid size :       91
  | Max. angular integration grid size:      434
  | Max. angular grid division number :        8
  | Radial grid for Hartree potential :     1362
  | Number of spin channels           :        1

------------------------------------------------------------
          Reading file control.in.
------------------------------------------------------------
  XC: Using PBE gradient-corrected functionals.
  Convergence accuracy of total energy:  0.1000E-05
  Convergence accuracy of sum of eigenvalues:  0.1000E-02
  Convergence accuracy of self-consistent charge density:  0.1000E-05
  Convergence accuracy of forces:  0.1000E-03
  Using the default MBD implementation with analytical forces
  Found k-point grid:         3         3         3
 
  Reading configuration options for species Li                  .
  | Found nuclear charge :   3.0000
  | Found atomic mass :    6.94100000000000      amu
  | Found l_max for Hartree potential  :   6
  | Found cutoff potl. onset [A], width [A], scale factor :    5.00000    2.00000    1.00000
  | Threshold for basis-dependent cutoff potential is   0.100000E-03
  | Found data for basic radial integration grid :    29 points, outermost radius =    7.000 A
  | Found multiplier for basic radial grid :   2
  | Found angular grid specification: user-specified.
  | Specified grid contains     5 separate shells.
  | Check grid settings after all constraints further below.
  | Found free-atom valence shell :  2 s   1.000
  | Found free-ion valence shell :  1 s   2.000
  | Found hydrogenic basis function :  2 p   1.600
  | Found hydrogenic basis function :  2 s   2.000
  | Found hydrogenic basis function :  3 d   2.600
  | Found hydrogenic basis function :  3 p   4.600
  | Found hydrogenic basis function :  2 p   1.800
  | Found hydrogenic basis function :  3 s   6.200
  | Found hydrogenic basis function :  4 d   4.700
  | Found hydrogenic basis function :  4 f   4.100
  Species Li                  : Missing cutoff potential type.
  Defaulting to exp(1/x)/(1-x)^2 type cutoff potential.
  Species Li: No 'logarithmic' tag. Using default grid for free atom:
  | Default logarithmic grid data [bohr] : 0.1000E-03 0.1000E+03 0.1012E+01
  Species Li: On-site basis accuracy parameter (for Gram-Schmidt orthonormalisation) not specified.
  Using default value basis_acc =  0.1000000E-03.
  Species Li                  : Using default innermost maximum threshold i_radial=  2 for radial functions.
  Species Li                  : Default cutoff onset for free atom density etc. : 0.50000000E+01 AA.
  Species Li                  : Basic radial grid will be enhanced according to radial_multiplier =   2, to contain    59 grid points.
 
  Reading configuration options for species P                   .
  | Found nuclear charge :  15.0000
  | Found atomic mass :    30.9737620000000      amu
  | Found l_max for Hartree potential  :   6
  | Found cutoff potl. onset [A], width [A], scale factor :    4.00000    2.00000    1.00000
  | Threshold for basis-dependent cutoff potential is   0.100000E-03
  | Found data for basic radial integration grid :    43 points, outermost radius =    7.000 A
  | Found multiplier for basic radial grid :   2
  | Found angular grid specification: user-specified.
  | Specified grid contains     6 separate shells.
  | Check grid settings after all constraints further below.
  | Found free-atom valence shell :  3 s   2.000
  | Found free-atom valence shell :  3 p   3.000
  | Found free-ion valence shell :  3 s   1.000
  | Found free-ion valence shell :  3 p   2.000
  | Found ionic basis function :  3 d , default cutoff radius.
  | Found ionic basis function :  3 p , default cutoff radius.
  | Found hydrogenic basis function :  4 f   6.200
  | Found hydrogenic basis function :  5 g   8.600
  | Found ionic basis function :  3 s , default cutoff radius.
  | Found hydrogenic basis function :  4 d   6.200
  Species P                   : Missing cutoff potential type.
  Defaulting to exp(1/x)/(1-x)^2 type cutoff potential.
  Species P : No 'logarithmic' tag. Using default grid for free atom:
  | Default logarithmic grid data [bohr] : 0.1000E-03 0.1000E+03 0.1012E+01
  | Will include ionic basis functions of  2.0-fold positive P                    ion.
  Species P : On-site basis accuracy parameter (for Gram-Schmidt orthonormalisation) not specified.
  Using default value basis_acc =  0.1000000E-03.
  Species P                   : Using default innermost maximum threshold i_radial=  2 for radial functions.
  Species P                   : Default cutoff onset for free atom density etc. : 0.40000000E+01 AA.
  Species P                   : Basic radial grid will be enhanced according to radial_multiplier =   2, to contain    87 grid points.
 
  Reading configuration options for species S                   .
  | Found nuclear charge :  16.0000
  | Found atomic mass :    32.0650000000000      amu
  | Found l_max for Hartree potential  :   6
  | Found cutoff potl. onset [A], width [A], scale factor :    4.00000    2.00000    1.00000
  | Threshold for basis-dependent cutoff potential is   0.100000E-03
  | Found data for basic radial integration grid :    44 points, outermost radius =    7.000 A
  | Found multiplier for basic radial grid :   2
  | Found angular grid specification: user-specified.
  | Specified grid contains     5 separate shells.
  | Check grid settings after all constraints further below.
  | Found free-atom valence shell :  3 s   2.000
  | Found free-atom valence shell :  3 p   4.000
  | Found free-ion valence shell :  3 s   1.000
  | Found free-ion valence shell :  3 p   3.000
  | Found ionic basis function :  3 d , default cutoff radius.
  | Found hydrogenic basis function :  2 p   1.800
  | Found hydrogenic basis function :  4 f   7.000
  | Found ionic basis function :  3 s , default cutoff radius.
  | Found hydrogenic basis function :  4 d   6.200
  | Found hydrogenic basis function :  5 g  10.800
  Species S                   : Missing cutoff potential type.
  Defaulting to exp(1/x)/(1-x)^2 type cutoff potential.
  Species S : No 'logarithmic' tag. Using default grid for free atom:
  | Default logarithmic grid data [bohr] : 0.1000E-03 0.1000E+03 0.1012E+01
  | Will include ionic basis functions of  2.0-fold positive S                    ion.
  Species S : On-site basis accuracy parameter (for Gram-Schmidt orthonormalisation) not specified.
  Using default value basis_acc =  0.1000000E-03.
  Species S                   : Using default innermost maximum threshold i_radial=  2 for radial functions.
  Species S                   : Default cutoff onset for free atom density etc. : 0.40000000E+01 AA.
  Species S                   : Basic radial grid will be enhanced according to radial_multiplier =   2, to contain    89 grid points.
 
  Reading configuration options for species Cl                  .
  | Found nuclear charge :  17.0000
  | Found atomic mass :    35.4530000000000      amu
  | Found l_max for Hartree potential  :   6
  | Found cutoff potl. onset [A], width [A], scale factor :    4.00000    2.00000    1.00000
  | Threshold for basis-dependent cutoff potential is   0.100000E-03
  | Found data for basic radial integration grid :    45 points, outermost radius =    7.000 A
  | Found multiplier for basic radial grid :   2
  | Found angular grid specification: user-specified.
  | Specified grid contains     5 separate shells.
  | Check grid settings after all constraints further below.
  | Found free-atom valence shell :  3 s   2.000
  | Found free-atom valence shell :  3 p   5.000
  | Found free-ion valence shell :  3 s   1.000
  | Found free-ion valence shell :  3 p   4.000
  | Found ionic basis function :  3 d , default cutoff radius.
  | Found hydrogenic basis function :  2 p   1.900
  | Found hydrogenic basis function :  4 f   7.400
  | Found ionic basis function :  3 s , default cutoff radius.
  | Found hydrogenic basis function :  5 g  10.400
  | Found hydrogenic basis function :  3 d   3.300
  Species Cl                  : Missing cutoff potential type.
  Defaulting to exp(1/x)/(1-x)^2 type cutoff potential.
  Species Cl: No 'logarithmic' tag. Using default grid for free atom:
  | Default logarithmic grid data [bohr] : 0.1000E-03 0.1000E+03 0.1012E+01
  | Will include ionic basis functions of  2.0-fold positive Cl                   ion.
  Species Cl: On-site basis accuracy parameter (for Gram-Schmidt orthonormalisation) not specified.
  Using default value basis_acc =  0.1000000E-03.
  Species Cl                  : Using default innermost maximum threshold i_radial=  2 for radial functions.
  Species Cl                  : Default cutoff onset for free atom density etc. : 0.40000000E+01 AA.
  Species Cl                  : Basic radial grid will be enhanced according to radial_multiplier =   2, to contain    91 grid points.
  | MBD: Using the same k-grid sampling as DFT
 
  Finished reading input file 'control.in'. Consistency checks are next.
 
  MPI_IN_PLACE appears to work with this MPI implementation.
  | Keeping use_mpi_in_place .true. (see manual).
  Target number of points in a grid batch is not set. Defaulting to  100
  Method for grid partitioning is not set. Defaulting to parallel hash+maxmin partitioning.
  Batch size limit is not set. Defaulting to    200
  By default, will store active basis functions for each batch.
  If in need of memory, prune_basis_once .false. can be used to disable this option.
  communication_type for Hartree potential was not specified.
  Defaulting to calc_hartree .
  Defaulting to Pulay charge density mixer.
  Pulay mixer: Number of relevant iterations not set.
  Defaulting to    8 iterations.
  Pulay mixer: Number of initial linear mixing iterations not set.
  Defaulting to    0 iterations.
  Work space size for distributed Hartree potential not set.
  Defaulting to   0.200000E+03 MB.
  Mixing parameter for charge density mixing has not been set.
  Using default: charge_mix_param =     0.0500.
  The mixing parameter will be adjusted in iteration number     2 of the first full s.c.f. cycle only.
  Algorithm-dependent basis array size parameters:
  | n_max_pulay                         :        8
  Maximum number of self-consistency iterations not provided.
  Presetting  1000 iterations.
  Presetting      1001 iterations before the initial mixing cycle
  is restarted anyway using the sc_init_iter criterion / keyword.
  Presetting a factor      1.000 between actual scf density residual
  and density convergence criterion sc_accuracy_rho below which sc_init_iter
  takes no effect.
  Geometry relaxation not requested: no relaxation will be performed.
  Handling of forces: Unphysical translation and rotation will be removed from forces.
  No accuracy limit for integral partition fn. given. Defaulting to  0.1000E-14.
  No threshold value for u(r) in integrations given. Defaulting to  0.1000E-05.
  No occupation type (smearing scheme) given. Defaulting to Gaussian broadening, width =  0.1000E-01 eV.
  The width will be adjusted in iteration number     2 of the first full s.c.f. cycle only.
  S.C.F. convergence parameters will be adjusted in iteration number     2 of the first full s.c.f. cycle only.
  No accuracy for occupation numbers given. Defaulting to  0.1000E-12.
  No threshold value for occupation numbers given. Defaulting to  0.0000E+00.
  No accuracy for fermi level given. Defaulting to  0.1000E-19.
  Maximum # of iterations to find E_F not set. Defaulting to  200.
  Preferred method for the eigenvalue solver ('KS_method') not specified in 'control.in'.
  Defaulting to serial version, 'lapack_fast'.
  Will not use alltoall communication since running on < 1024 CPUs.
  Threshold for basis singularities not set.
  Default threshold for basis singularities:  0.1000E-04
  partition_type (choice of integration weights) for integrals was not specified.
  | Using a version of the partition function of Stratmann and coworkers ('stratmann_smoother').
  | At each grid point, the set of atoms used to build the partition table is smoothly restricted to
  | only those atoms whose free-atom density would be non-zero at that grid point.
  Partitioning for Hartree potential was not defined. Using partition_type for integrals.
  | Adjusted default value of keyword multip_moments_threshold to:       0.10000000E-11
  | This value may affect high angular momentum components of the Hartree potential in periodic systems.
  Spin handling was not defined in control.in. Defaulting to unpolarized case.
  Angular momentum expansion for Kerker preconditioner not set explicitly.
  | Using default value of   0
  No explicit requirement for turning off preconditioner.
  | By default, it will be turned off when the charge convergence reaches
  | sc_accuracy_rho  =   0.100000E-05
  | sc_accuracy_eev  =   0.100000E-02
  | sc_accuracy_etot =   0.100000E-05
  No special mixing parameter while Kerker preconditioner is on.
  Using default: charge_mix_param =     0.0500.
  No q(lm)/r^(l+1) cutoff set for long-range Hartree potential.
  | Using default value of  0.100000E-09 .
  | Verify using the multipole_threshold keyword.
  Defaulting to new monopole extrapolation.
  Density update method: automatic selection selected.
  Using density matrix based charge density update.
  Using density matrix based charge density update.
  Using packed matrix style: index .
  Defaulting to use time-reversal symmetry for k-point grid.
------------------------------------------------------------


------------------------------------------------------------
          Reading geometry description geometry.in.
------------------------------------------------------------
 * Warning! You did not set the 'relativistic' flag in input file 'control.in'.
 * Since you are not attempting to treat any elements beyond Ca(Z=20), FHI-aims
 * will default to 'relativistic none'.
 * You must ensure that this is really what you want!!
 * For example, DO NOT compute total-energy differences between results from
 * different settings of the 'relativistic' flag.
  Input structure read successfully.
  The structure contains       13 atoms,  and a total of        130.000 electrons.

  Input geometry:
  | Unit cell:
  |        7.41407679        0.00000000        0.00000000
  |        3.70703840        6.42077885        0.00000000
  |        3.70703840        2.14025962        6.05356835
  | Atomic structure:
  |       Atom                x [A]            y [A]            z [A]
  |    1: Species Li            2.02488076        1.16906545        2.88686805
  |    2: Species Li            5.38919604        3.11145378        0.13991613
  |    3: Species Li            5.38919604        1.16906545        2.88686805
  |    4: Species Li            2.02488076        3.11145378        0.13991613
  |    5: Species Li            3.70703840        0.19787128        0.13991613
  |    6: Species Li            3.70703840        4.08264795        2.88686805
  |    7: Species P             7.41407679        4.28051923        3.02678418
  |    8: Species S             5.70109387        5.26951034        3.72610650
  |    9: Species S             7.41407676        4.28051921        0.92881715
  |   10: Species S             7.41407676        2.30253695        3.72610650
  |   11: Species S             9.12705965        5.26951034        3.72610650
  |   12: Species S             3.70703840        2.14025962        1.51339209
  |   13: Species Cl            0.00000000        0.00000000        0.00000000

  Lattice parameters for 3D lattice (in Angstroms) :     7.414077    7.414077    7.414077
  Angle(s) between unit vectors (in degrees)      :    60.000000   60.000000   60.000000

  |

  | The smallest distance between any two atoms is         2.09796696 AA.
  |
  | The first atom of this pair is atom number                     11 .
  | The second atom of this pair is atom number                     7 .
  | Wigner-Seitz cell of the first atom image           1     0     0 .
  | (The Wigner-Seitz cell of the second atom is 0 0 0  by definition.)

  Symmetry information by spglib:
  | Precision set to  0.1E-04
  | Number of Operations  : 24
  | Space group           : 216
  | International         : F-43m
  | Schoenflies           : Td^2

  Quantities derived from the lattice vectors:
  | Reciprocal lattice vector 1:  0.847467 -0.489285 -0.345977
  | Reciprocal lattice vector 2:  0.000000  0.978571 -0.345977
  | Reciprocal lattice vector 3:  0.000000  0.000000  1.037931
  | Unit cell volume                               :   0.288175E+03  A^3

  Range separation radius for Ewald summation (hartree_convergence_parameter):      4.03628397 bohr.

  Fractional coordinates:
                         L1                L2                L3
       atom_frac         0.02311300        0.02311300        0.47688700  Li
       atom_frac         0.47688700        0.47688700        0.02311300  Li
       atom_frac         0.47688700        0.02311300        0.47688700  Li
       atom_frac         0.02311300        0.47688700        0.02311300  Li
       atom_frac         0.47688700        0.02311300        0.02311300  Li
       atom_frac         0.02311300        0.47688700        0.47688700  Li
       atom_frac         0.50000000        0.50000000        0.50000000  P
       atom_frac         0.15343300        0.61552233        0.61552233  S
       atom_frac         0.61552233        0.61552233        0.15343300  S
       atom_frac         0.61552233        0.15343300        0.61552233  S
       atom_frac         0.61552233        0.61552233        0.61552233  S
       atom_frac         0.25000000        0.25000000        0.25000000  S
       atom_frac         0.00000000        0.00000000        0.00000000  Cl

  Number of empty states per atom not set in control.in - providing a guess from actual geometry.
  | Total number of empty states used during s.c.f. cycle:       30
  If you use a very high smearing, use empty_states (per atom!) in control.in to increase this value.

  Structure-dependent array size parameters: 
  | Maximum number of distinct radial functions  :       43
  | Maximum number of basis functions            :      453
  | Number of Kohn-Sham states (occupied + empty):       95
------------------------------------------------------------

------------------------------------------------------------
          Preparing all fixed parts of the calculation.
------------------------------------------------------------
  Determining machine precision:
    2.225073858507201E-308
  Setting up grids for atomic and cluster calculations.

  Creating wave function, potential, and density for free atoms.

  Species: Li

  List of occupied orbitals and eigenvalues:
    n    l              occ      energy [Ha]    energy [eV]
    1    0           2.0000        -1.901473       -51.7417
    2    0           1.0000        -0.103132        -2.8064


  Species: P

  List of occupied orbitals and eigenvalues:
    n    l              occ      energy [Ha]    energy [eV]
    1    0           2.0000       -76.356288     -2077.7603
    2    0           2.0000        -6.358286      -173.0178
    3    0           2.0000        -0.509419       -13.8620
    2    1           6.0000        -4.573976      -124.4642
    3    1           3.0000        -0.201560        -5.4847


  Species: S

  List of occupied orbitals and eigenvalues:
    n    l              occ      energy [Ha]    energy [eV]
    1    0           2.0000       -88.108280     -2397.5483
    2    0           2.0000        -7.732485      -210.4116
    3    0           2.0000        -0.629532       -17.1304
    2    1           6.0000        -5.750324      -156.4743
    3    1           4.0000        -0.257562        -7.0086


  Species: Cl

  List of occupied orbitals and eigenvalues:
    n    l              occ      energy [Ha]    energy [eV]
    1    0           2.0000      -100.710795     -2740.4802
    2    0           2.0000        -9.222997      -250.9705
    3    0           2.0000        -0.754245       -20.5241
    2    1           6.0000        -7.039872      -191.5647
    3    1           5.0000        -0.316221        -8.6048

  Creating fixed part of basis set: Ionic, confined, hydrogenic.
 
  Li                   hydrogenic:
 
  List of hydrogenic basis orbitals: 
    n    l      effective z      eigenvalue [eV]  inner max. [A]     outer max. [A]     outer radius [A]   
    2    1         1.600000        -8.7048           1.319365           1.319365           6.386418
    2    0         2.000000       -13.6052           0.203259           1.385485           6.232164
    3    2         2.600000       -10.2084           1.835332           1.835332           6.386418
    3    1         4.600000       -31.9883           0.343834           1.385485           5.381805
    2    1         1.800000       -11.0199           1.181903           1.181903           6.386418
    3    0         6.200000       -58.1113           0.062858           1.111823           4.371906
    4    2         4.700000       -18.7772           0.761113           2.401695           6.386418
    4    3         4.100000       -14.2833           2.073992           2.073992           6.386418
 
 
  P                    ion:

  List of free ionic orbitals and eigenvalues:
    n    l      energy [Ha]    energy [eV]
    1    0       -77.297133     -2103.3620
    2    0        -7.273914      -197.9333
    3    0        -1.267536       -34.4914
    2    1        -5.491316      -149.4263
    3    1        -0.913470       -24.8568


  List of ionic basis orbitals and eigenvalues:
    n    l      energy [Ha]    energy [eV]    outer radius [A]
    3    2        -0.458060       -12.4644       5.404780
    3    1        -0.913461       -24.8565       4.724723
    3    0        -1.267529       -34.4912       4.232463

 
  P                    hydrogenic:
 
  List of hydrogenic basis orbitals: 
    n    l      effective z      eigenvalue [eV]  inner max. [A]     outer max. [A]     outer radius [A]   
    4    3         6.200000       -32.6870           1.357793           1.357793           5.339109
    5    4         8.600000       -40.2502           1.534356           1.534356           5.404780
    4    2         6.200000       -32.6848           0.577014           1.820771           5.404780
 
 
  S                    ion:

  List of free ionic orbitals and eigenvalues:
    n    l      energy [Ha]    energy [eV]
    1    0       -89.127201     -2425.2745
    2    0        -8.724378      -237.4024
    3    0        -1.464668       -39.8556
    2    1        -6.744348      -183.5230
    3    1        -1.048520       -28.5317


  List of ionic basis orbitals and eigenvalues:
    n    l      energy [Ha]    energy [eV]    outer radius [A]
    3    2        -0.496514       -13.5108       5.386362
    3    0        -1.464662       -39.8555       3.967934

 
  S                    hydrogenic:
 
  List of hydrogenic basis orbitals: 
    n    l      effective z      eigenvalue [eV]  inner max. [A]     outer max. [A]     outer radius [A]   
    2    1         1.800000       -11.0118           1.168531           1.168531           5.452614
    4    3         7.000000       -41.6672           1.212182           1.212182           5.066981
    4    2         6.200000       -32.6848           0.582121           1.814567           5.386362
    5    4        10.800000       -63.4785           1.227092           1.227092           4.766538
 
 
  Cl                   ion:

  List of free ionic orbitals and eigenvalues:
    n    l      energy [Ha]    energy [eV]
    1    0      -101.807232     -2770.3157
    2    0       -10.290876      -280.0290
    3    0        -1.664625       -45.2967
    2    1        -8.110237      -220.6908
    3    1        -1.183915       -32.2160


  List of ionic basis orbitals and eigenvalues:
    n    l      energy [Ha]    energy [eV]    outer radius [A]
    3    2        -0.529392       -14.4055       5.389057
    3    0        -1.664620       -45.2966       3.780461

 
  Cl                   hydrogenic:
 
  List of hydrogenic basis orbitals: 
    n    l      effective z      eigenvalue [eV]  inner max. [A]     outer max. [A]     outer radius [A]   
    2    1         1.900000       -12.2741           1.113321           1.113321           5.389057
    4    3         7.400000       -46.5653           1.140877           1.140877           4.886961
    5    4        10.400000       -58.8635           1.273568           1.273568           4.886961
    3    2         3.300000       -16.4532           1.439178           1.439178           5.455343
 

  Adding cutoff potential to free-atom effective potential.
  Creating atomic-like basis functions for current effective potential.

  Species Li                  :

  List of atomic basis orbitals and eigenvalues:
    n    l      energy [Ha]    energy [eV]    outer radius [A]
    1    0        -1.901473       -51.7417       4.318785
    2    0        -0.103132        -2.8064       6.464971


  Species P                   :

  List of atomic basis orbitals and eigenvalues:
    n    l      energy [Ha]    energy [eV]    outer radius [A]
    1    0       -76.356288     -2077.7603       0.736837
    2    0        -6.358286      -173.0178       2.532824
    3    0        -0.509419       -13.8620       5.274236
    2    1        -4.573976      -124.4642       2.862183
    3    1        -0.201560        -5.4847       5.404780


  Species S                   :

  List of atomic basis orbitals and eigenvalues:
    n    l      energy [Ha]    energy [eV]    outer radius [A]
    1    0       -88.108280     -2397.5483       0.682391
    2    0        -7.732485      -210.4116       2.317169
    3    0        -0.629532       -17.1304       5.256262
    2    1        -5.750324      -156.4743       2.555240
    3    1        -0.257562        -7.0086       5.386362


  Species Cl                  :

  List of atomic basis orbitals and eigenvalues:
    n    l      energy [Ha]    energy [eV]    outer radius [A]
    1    0      -100.710795     -2740.4802       0.642251
    2    0        -9.222997      -250.9705       2.128190
    3    0        -0.754245       -20.5241       5.194994
    2    1        -7.039872      -191.5647       2.346844
    3    1        -0.316221        -8.6048       5.323577

  Assembling full basis from fixed parts.
  | Species Li :   atomic orbital   1 s accepted.
  | Species Li :    hydro orbital   3 s accepted.
  | Species Li :    hydro orbital   2 s accepted.
  | Species Li :   atomic orbital   2 s accepted.
  | Species Li :    hydro orbital   3 p accepted.
  | Species Li :    hydro orbital   2 p accepted.
  | Species Li :    hydro orbital   2 p accepted.
  | Species Li :    hydro orbital   3 d accepted.
  | Species Li :    hydro orbital   4 d accepted.
  | Species Li :    hydro orbital   4 f accepted.
  | Species P :   atomic orbital   1 s accepted.
  | Species P :   atomic orbital   2 s accepted.
  | Species P :    ionic orbital   3 s accepted.
  | Species P :   atomic orbital   3 s accepted.
  | Species P :   atomic orbital   2 p accepted.
  | Species P :    ionic orbital   3 p accepted.
  | Species P :   atomic orbital   3 p accepted.
  | Species P :    ionic orbital   3 d accepted.
  | Species P :    hydro orbital   4 d accepted.
  | Species P :    hydro orbital   4 f accepted.
  | Species P :    hydro orbital   5 g accepted.
  | Species S :   atomic orbital   1 s accepted.
  | Species S :   atomic orbital   2 s accepted.
  | Species S :    ionic orbital   3 s accepted.
  | Species S :   atomic orbital   3 s accepted.
  | Species S :   atomic orbital   2 p accepted.
  | Species S :   atomic orbital   3 p accepted.
  | Species S :    hydro orbital   2 p accepted.
  | Species S :    ionic orbital   3 d accepted.
  | Species S :    hydro orbital   4 d accepted.
  | Species S :    hydro orbital   4 f accepted.
  | Species S :    hydro orbital   5 g accepted.
  | Species Cl :   atomic orbital   1 s accepted.
  | Species Cl :   atomic orbital   2 s accepted.
  | Species Cl :    ionic orbital   3 s accepted.
  | Species Cl :   atomic orbital   3 s accepted.
  | Species Cl :   atomic orbital   2 p accepted.
  | Species Cl :   atomic orbital   3 p accepted.
  | Species Cl :    hydro orbital   2 p accepted.
  | Species Cl :    ionic orbital   3 d accepted.
  | Species Cl :    hydro orbital   3 d accepted.
  | Species Cl :    hydro orbital   4 f accepted.
  | Species Cl :    hydro orbital   5 g accepted.
 
  Basis size parameters after reduction:
  | Total number of radial functions:       43
  | Total number of basis functions :      453
 
  Per-task memory consumption for arrays in subroutine allocate_ext:
  |          11.258640MB.
  Testing on-site integration grid accuracy.
  |  Species  Function  <phi|h_atom|phi> (log., in eV)  <phi|h_atom|phi> (rad., in eV)
           1        1                -51.7417001117                -51.7417000312
           1        2                 33.5927188637                 33.5926505054
           1        3                 69.1469416012                 69.1473382425
           1        4                 48.8336153902                 48.8810182289 ***
           1        5                 17.1749490570                 17.1749098864
           1        6                 32.1201183828                 32.1217831653
           1        7                  6.0166019876                  6.0249480535
           1        8                  4.9175332206                  4.9194842525
           1        9                 28.8010599263                 28.8011051086
           1       10                  9.9331480983                  9.9353515081
           2       11              -2077.7602992527              -2077.7602630746
           2       12               -173.0177635265               -173.0177629291
           2       13                -13.5620523038                -13.5620521963
           2       14                  6.3015351439                  6.3015396353
           2       15               -124.4642131574               -124.4642129967
           2       16                 -4.8468074573                 -4.8468065719
           2       17                  5.8113348591                  5.8108493787
           2       18                  5.1218113540                  5.1217878152
           2       19                 22.1386653152                 22.1386624883
           2       20                 19.3047268689                 19.3047231214
           2       21                 30.3235883931                 30.3235836780
           3       22              -2397.5482725833              -2397.5482291499
           3       23               -210.4116306505               -210.4116300246
           3       24                -16.8591546483                -16.8591544436
           3       25                  7.5848976656                  7.5849001027
           3       26               -156.4742745766               -156.4742744285
           3       27                 -7.0089268331                 -7.0089287934
           3       28                  6.8790437028                  6.8789536772
           3       29                  6.0023049431                  6.0023019693
           3       30                 19.5634804122                 19.5634829634
           3       31                 24.6809503130                 24.6809503093
           3       32                 47.5107032033                 47.5107040524
           4       33              -2740.4801671239              -2740.4801157382
           4       34               -250.9705040601               -250.9705032686
           4       35                -20.2716828479                -20.2716826054
           4       36                  9.0161300765                  9.0161279813
           4       37               -191.5646602865               -191.5646600866
           4       38                 -8.6049187754                 -8.6049181478
           4       39                  7.6458046208                  7.6458222053
           4       40                  6.9765726558                  6.9765744583
           4       41                 16.6546700656                 16.6546956458
           4       42                 28.0343243807                 28.0343233726
           4       43                 45.0370063060                 45.0370052039
 * Note: Onsite integrals marked "***" above are less accurate than
 * onsite_accuracy_threshold =    0.03000 eV. Usually, this is harmless.
 * When in doubt, tighten the "radial" and/or "radial_multiplier" flags to check.

  Preparing densities etc. for the partition functions (integrals / Hartree potential).

  Preparations completed.
  max(cpu_time)          :      0.326 s.
  Wall clock time (cpu1) :      0.328 s.
------------------------------------------------------------

------------------------------------------------------------
          Begin self-consistency loop: Initialization.

          Date     :  20220223, Time     :  122131.957
------------------------------------------------------------

  Initializing index lists of integration centers etc. from given atomic structure:
  Mapping all atomic coordinates to central unit cell.

  Initializing the k-points
          Using symmetry for reducing the k-points
  | k-points reduced from:       27 to       14
  | Number of k-points                             :        14
  The eigenvectors in the calculations are COMPLEX.
  | K-points in task   0:        14
  | Number of basis functions in the Hamiltonian integrals :      8017
  | Number of basis functions in a single unit cell        :       453
  | Number of centers in hartree potential         :      1549
  | Number of centers in hartree multipole         :      1023
  | Number of centers in electron density summation:       801
  | Number of centers in basis integrals           :       837
  | Number of centers in integrals                 :       299
  | Number of centers in hamiltonian               :      1005
  | Consuming         29 KiB for k_phase.
  | Number of super-cells (origin) [n_cells]                     :         729
  | Number of super-cells (after PM_index) [n_cells]             :         136
  | Number of super-cells in hamiltonian [n_cells_in_hamiltonian]:         136
  | Size of matrix packed + index [n_hamiltonian_matrix_size] :     2130395
  Partitioning the integration grid into batches with parallel hashing+maxmin method.
  | Number of batches:     3617
  | Maximal batch size:     134
  | Minimal batch size:      63
  | Average batch size:      74.683
  | Standard deviation of batch sizes:      22.214

  Integration load balanced across     1 MPI tasks.
  Work distribution over tasks is as follows:
  Task     0 has     270130 integration points.
  Initializing partition tables, free-atom densities, potentials, etc. across the integration grid (initialize_grid_storage).
  | initialize_grid_storage: Actual outermost partition radius vs. multipole_radius_free
  | (-- VB: in principle, multipole_radius_free should be larger, hence this output)
  | Species        1: Confinement radius =              7.000000000000000 AA, multipole_radius_free =              7.042572113910259 AA.
  | Species        1: outer_partition_radius set to              7.042572113910259 AA .
  | Species        2: Confinement radius =              6.000000000000000 AA, multipole_radius_free =              6.033387558927091 AA.
  | Species        2: outer_partition_radius set to              6.033387558927091 AA .
  | Species        3: Confinement radius =              6.000000000000000 AA, multipole_radius_free =              6.012827091137924 AA.
  | Species        3: outer_partition_radius set to              6.012827091137924 AA .
  | Species        4: Confinement radius =              6.000000000000000 AA, multipole_radius_free =              6.015836048499353 AA.
  | Species        4: outer_partition_radius set to              6.015836048499353 AA .
  | Original list of interatomic distances with         837 x        837 entries is created.
  | Net number of integration points:   270130
  | of which are non-zero points    :   217804
  | Numerical average free-atom electrostatic potential    :     -9.19122998 eV
  Renormalizing the initial density to the exact electron count on the 3D integration grid.
  | Initial density: Formal number of electrons (from input files) :     130.0000000000
  | Integrated number of electrons on 3D grid     :     130.0000302857
  | Charge integration error                      :       0.0000302857
  | Normalization factor for density and gradient :       0.9999997670
  Obtaining max. number of non-zero basis functions in each batch (get_n_compute_maxes).
  | Maximal number of non-zero basis functions:     1667 in task     0
  Allocating        9.640 MB for KS_eigenvector_complex
  Integrating Hamiltonian matrix: batch-based integration.
  Time summed over all CPUs for integration: real work       69.917 s, elapsed       69.917 s
  Integrating overlap matrix.
  Time summed over all CPUs for integration: real work       52.401 s, elapsed       52.401 s
  Decreasing sparse matrix size:
   Tolerance:  9.999999824516700E-014
   Hamiltonian matrix
  | Array has  1853769 nonzero elements out of  2130395 elements
  | Sparsity factor is 0.130
   Overlap matrix
  | Array has  1740857 nonzero elements out of  2130395 elements
  | Sparsity factor is 0.183
  New size of hamiltonian matrix:     1854081

  Updating Kohn-Sham eigenvalues and eigenvectors using ELSI and the ELPA eigensolver.
  Overlap matrix is nonsingular
  | Lowest eigenvalue of overlap  :  0.55E-04
  | Highest eigenvalue of overlap :  0.13E+02
  Finished singularity check of overlap matrix
  | Time :     0.030 s
  Finished Cholesky decomposition
  | Time :     0.007 s
  Finished transformation to standard eigenproblem
  | Time :     0.013 s
  Starting LAPACK eigensolver
  Finished solving standard eigenproblem
  | Time :     0.031 s
  Finished back-transformation of eigenvectors
  | Time :     0.002 s

  Obtaining occupation numbers and chemical potential using ELSI.
  | Chemical potential (Fermi level):    -8.71492198eV
  Writing Kohn-Sham eigenvalues.
  K-point:       1 at    0.000000    0.000000    0.000000 (in units of recip. lattice)

  State    Occupation    Eigenvalue [Ha]    Eigenvalue [eV]
      1       2.00000        -100.717532        -2740.66350
      2       2.00000         -88.185557        -2399.65110
      3       2.00000         -88.151149        -2398.71480
      4       2.00000         -88.151149        -2398.71480
      5       2.00000         -88.151149        -2398.71480
      6       2.00000         -88.151149        -2398.71480
      7       2.00000         -76.387278        -2078.60360
      8       2.00000          -9.230187         -251.16616
      9       2.00000          -7.812978         -212.60195
     10       2.00000          -7.778133         -211.65376
     11       2.00000          -7.778133         -211.65376
     12       2.00000          -7.778133         -211.65376
     13       2.00000          -7.778133         -211.65376
     14       2.00000          -7.047004         -191.75872
     15       2.00000          -7.047004         -191.75872
     16       2.00000          -7.047004         -191.75872
     17       2.00000          -6.394523         -174.00383
     18       2.00000          -5.830460         -158.65488
     19       2.00000          -5.830460         -158.65488
     20       2.00000          -5.830460         -158.65488
     21       2.00000          -5.796365         -157.72712
     22       2.00000          -5.796365         -157.72712
     23       2.00000          -5.796365         -157.72712
     24       2.00000          -5.796365         -157.72712
     25       2.00000          -5.795317         -157.69861
     26       2.00000          -5.795317         -157.69861
     27       2.00000          -5.795317         -157.69861
     28       2.00000          -5.795317         -157.69861
     29       2.00000          -5.795317         -157.69861
     30       2.00000          -5.795317         -157.69861
     31       2.00000          -5.795317         -157.69861
     32       2.00000          -5.795317         -157.69861
     33       2.00000          -4.609817         -125.43951
     34       2.00000          -4.609817         -125.43951
     35       2.00000          -4.609817         -125.43951
     36       2.00000          -1.917669          -52.18244
     37       2.00000          -1.917569          -52.17971
     38       2.00000          -1.917569          -52.17971
     39       2.00000          -1.917569          -52.17970
     40       2.00000          -1.917522          -52.17842
     41       2.00000          -1.917522          -52.17842
     42       2.00000          -0.807058          -21.96116
     43       2.00000          -0.768662          -20.91636
     44       2.00000          -0.749650          -20.39901
     45       2.00000          -0.725487          -19.74151
     46       2.00000          -0.725487          -19.74151
     47       2.00000          -0.725487          -19.74151
     48       2.00000          -0.570840          -15.53335
     49       2.00000          -0.441785          -12.02157
     50       2.00000          -0.441784          -12.02156
     51       2.00000          -0.441784          -12.02156
     52       2.00000          -0.397300          -10.81109
     53       2.00000          -0.397300          -10.81109
     54       2.00000          -0.397300          -10.81109
     55       2.00000          -0.368408          -10.02488
     56       2.00000          -0.368407          -10.02487
     57       2.00000          -0.353130           -9.60915
     58       2.00000          -0.353130           -9.60915
     59       2.00000          -0.353130           -9.60914
     60       2.00000          -0.330346           -8.98917
     61       2.00000          -0.330346           -8.98916
     62       2.00000          -0.330346           -8.98916
     63       2.00000          -0.322287           -8.76986
     64       2.00000          -0.322286           -8.76986
     65       2.00000          -0.322286           -8.76986
     66       0.00000          -0.208573           -5.67556
     67       0.00000          -0.152956           -4.16216
     68       0.00000          -0.136867           -3.72435
     69       0.00000          -0.136867           -3.72434
     70       0.00000          -0.136867           -3.72434
     71       0.00000          -0.093276           -2.53816
     72       0.00000          -0.093275           -2.53815
     73       0.00000          -0.093275           -2.53814
     74       0.00000          -0.042194           -1.14815
     75       0.00000          -0.042192           -1.14811
     76       0.00000          -0.042192           -1.14810
     77       0.00000          -0.032795           -0.89241
     78       0.00000          -0.032794           -0.89238
     79       0.00000          -0.013475           -0.36669
     80       0.00000          -0.013475           -0.36666
     81       0.00000           0.024069            0.65494
     82       0.00000           0.024072            0.65502
     83       0.00000           0.024072            0.65504
     84       0.00000           0.037505            1.02055
     85       0.00000           0.062330            1.69608
     86       0.00000           0.062330            1.69608
     87       0.00000           0.062331            1.69611
     88       0.00000           0.065980            1.79540
     89       0.00000           0.065982            1.79546
     90       0.00000           0.074238            2.02012
     91       0.00000           0.074239            2.02014
     92       0.00000           0.074239            2.02014
     93       0.00000           0.086771            2.36115
     94       0.00000           0.086772            2.36119
     95       0.00000           0.086773            2.36121

  What follows are estimated values for band gap, HOMO, LUMO, etc.
  | They are estimated on a discrete k-point grid and not necessarily exact.
  | For converged numbers, create a DOS and/or band structure plot on a denser k-grid.

  Highest occupied state (VBM) at     -8.76380931 eV (relative to internal zero)
  | Occupation number:      2.00000000
  | K-point:       3 at    0.000000    0.333333    0.000000 (in units of recip. lattice)

  Lowest unoccupied state (CBM) at    -5.67556260 eV (relative to internal zero)
  | Occupation number:      0.00000000
  | K-point:       1 at    0.000000    0.000000    0.000000 (in units of recip. lattice)

  ESTIMATED overall HOMO-LUMO gap:      3.08824670 eV between HOMO at k-point 3 and LUMO at k-point 1
  | This appears to be an indirect band gap.
  | Smallest direct gap :      3.09429732 eV for k_point 1 at    0.000000    0.000000    0.000000 (in units of recip. lattice)
  The gap value is above 0.2 eV. Unless you are using a very sparse k-point grid,
  this system is most likely an insulator or a semiconductor.
  Calculating total energy contributions from superposition of free atom densities.

  Total energy components:
  | Sum of eigenvalues            :       -1634.66998814 Ha      -44481.63357782 eV
  | XC energy correction          :        -189.96551950 Ha       -5169.22479282 eV
  | XC potential correction       :         245.41174363 Ha        6677.99331670 eV
  | Free-atom electrostatic energy:       -1258.10513292 Ha      -34234.78251323 eV
  | Hartree energy correction     :           0.00000000 Ha           0.00000000 eV
  | Entropy correction            :          -0.00000000 Ha          -0.00000000 eV
  | ---------------------------
  | Total energy                  :       -2837.32889692 Ha      -77207.64756717 eV
  | Total energy, T -> 0          :       -2837.32889692 Ha      -77207.64756717 eV  <-- do not rely on this value for anything but (periodic) metals
  | Electronic free energy        :       -2837.32889692 Ha      -77207.64756717 eV

  Derived energy quantities:
  | Kinetic energy                :        2832.67570663 Ha       77081.02781704 eV
  | Electrostatic energy          :       -5480.03908406 Ha     -149119.45059139 eV
  | Energy correction for multipole
  | error in Hartree potential    :           0.00000000 Ha           0.00000000 eV
  | Sum of eigenvalues per atom                           :       -3421.66412137 eV
  | Total energy (T->0) per atom                          :       -5939.04981286 eV  <-- do not rely on this value for anything but (periodic) metals
  | Electronic free energy per atom                       :       -5939.04981286 eV
  Initialize hartree_potential_storage
  Max. number of atoms included in rho_multipole:           13

  End scf initialization - timings             :  max(cpu_time)    wall_clock(cpu1)
  | Time for scf. initialization               :      146.178 s         146.292 s
  | Boundary condition initialization          :        0.555 s           0.556 s
  | Integration                                :      124.137 s         124.229 s
  | Solution of K.-S. eqns.                    :        1.354 s           1.354 s
  | Grid partitioning                          :        2.829 s           2.833 s
  | Preloading free-atom quantities on grid    :        0.014 s           0.014 s
  | Free-atom superposition energy             :        2.044 s           2.044 s
  | Total energy evaluation                    :        0.000 s           0.001 s

  Partial memory accounting:
  | Current value for overall tracked memory usage on task 0  :          46.723 MB
  | Peak value for overall tracked memory usage on task 0     :          79.881 MB after allocating wave
  | Largest tracked array allocation on task 0 so far         :          22.231 MB  when allocating hamiltonian_shell
  Note:  These values currently only include a subset of arrays which are explicitly tracked.
  The "true" memory usage will be greater.
------------------------------------------------------------

------------------------------------------------------------
          Begin self-consistency iteration #    1

  Date     :  20220223, Time     :  122358.249
------------------------------------------------------------
  Evaluating new KS density using the density matrix
  Evaluating density matrix
  Time summed over all CPUs for getting density from density matrix: real work      124.956 s, elapsed      124.956 s
  Integration grid: deviation in total charge (<rho> - N_e) =  -9.663381E-13
  Pulay mixing of updated and previous charge densities.

  Evaluating partitioned Hartree potential by multipole expansion.
  | Analytical far-field extrapolation by fixed multipoles:
  | Hartree multipole sum: apparent total charge =   0.131928E-02
  Summing up the Hartree potential.
  | Estimated reciprocal-space cutoff momentum G_max:         2.40432357 bohr^-1 .
  | Reciprocal lattice points for long-range Hartree potential:     458
  Time summed over all CPUs for potential: real work       17.698 s, elapsed       17.698 s
  | RMS charge density error from multipole expansion :   0.422035E-03
  | Average real-space part of the electrostatic potential :      0.01660448 eV

  Integrating Hamiltonian matrix: batch-based integration.
  Time summed over all CPUs for integration: real work       67.847 s, elapsed       67.847 s

  Updating Kohn-Sham eigenvalues and eigenvectors using ELSI and the ELPA eigensolver.
  Finished Cholesky decomposition
  | Time :     0.008 s
  Finished transformation to standard eigenproblem
  | Time :     0.015 s
  Starting LAPACK eigensolver
  Finished solving standard eigenproblem
  | Time :     0.035 s
  Finished back-transformation of eigenvectors
  | Time :     0.002 s

  Obtaining occupation numbers and chemical potential using ELSI.
  | Chemical potential (Fermi level):    -8.67816464eV
  Writing Kohn-Sham eigenvalues.
  K-point:       1 at    0.000000    0.000000    0.000000 (in units of recip. lattice)

  State    Occupation    Eigenvalue [Ha]    Eigenvalue [eV]
      1       2.00000        -100.709586        -2740.44728
      2       2.00000         -88.171905        -2399.27961
      3       2.00000         -88.146469        -2398.58747
      4       2.00000         -88.146469        -2398.58747
      5       2.00000         -88.146469        -2398.58747
      6       2.00000         -88.146469        -2398.58747
      7       2.00000         -76.398381        -2078.90573
      8       2.00000          -9.223772         -250.99162
      9       2.00000          -7.801771         -212.29698
     10       2.00000          -7.774611         -211.55792
     11       2.00000          -7.774611         -211.55792
     12       2.00000          -7.774611         -211.55792
     13       2.00000          -7.774611         -211.55792
     14       2.00000          -7.040439         -191.58010
     15       2.00000          -7.040439         -191.58010
     16       2.00000          -7.040439         -191.58010
     17       2.00000          -6.403308         -174.24288
     18       2.00000          -5.819030         -158.34386
     19       2.00000          -5.819030         -158.34386
     20       2.00000          -5.819030         -158.34386
     21       2.00000          -5.792982         -157.63505
     22       2.00000          -5.792981         -157.63505
     23       2.00000          -5.792981         -157.63505
     24       2.00000          -5.792981         -157.63504
     25       2.00000          -5.791563         -157.59645
     26       2.00000          -5.791563         -157.59645
     27       2.00000          -5.791563         -157.59645
     28       2.00000          -5.791563         -157.59645
     29       2.00000          -5.791563         -157.59645
     30       2.00000          -5.791563         -157.59645
     31       2.00000          -5.791563         -157.59645
     32       2.00000          -5.791563         -157.59645
     33       2.00000          -4.618776         -125.68329
     34       2.00000          -4.618776         -125.68329
     35       2.00000          -4.618776         -125.68329
     36       2.00000          -1.917717          -52.18374
     37       2.00000          -1.917617          -52.18103
     38       2.00000          -1.917617          -52.18103
     39       2.00000          -1.917617          -52.18102
     40       2.00000          -1.917570          -52.17975
     41       2.00000          -1.917570          -52.17974
     42       2.00000          -0.807914          -21.98447
     43       2.00000          -0.765135          -20.82038
     44       2.00000          -0.743143          -20.22194
     45       2.00000          -0.724531          -19.71548
     46       2.00000          -0.724531          -19.71548
     47       2.00000          -0.724530          -19.71548
     48       2.00000          -0.571386          -15.54821
     49       2.00000          -0.442131          -12.03099
     50       2.00000          -0.442130          -12.03098
     51       2.00000          -0.442130          -12.03097
     52       2.00000          -0.392442          -10.67890
     53       2.00000          -0.392442          -10.67889
     54       2.00000          -0.392442          -10.67889
     55       2.00000          -0.367462           -9.99914
     56       2.00000          -0.367461           -9.99913
     57       2.00000          -0.351696           -9.57013
     58       2.00000          -0.351696           -9.57012
     59       2.00000          -0.351695           -9.57012
     60       2.00000          -0.327951           -8.92401
     61       2.00000          -0.327951           -8.92400
     62       2.00000          -0.327951           -8.92400
     63       2.00000          -0.320940           -8.73322
     64       2.00000          -0.320940           -8.73321
     65       2.00000          -0.320940           -8.73321
     66       0.00000          -0.209229           -5.69342
     67       0.00000          -0.151854           -4.13215
     68       0.00000          -0.137800           -3.74972
     69       0.00000          -0.137799           -3.74971
     70       0.00000          -0.137799           -3.74971
     71       0.00000          -0.091857           -2.49955
     72       0.00000          -0.091856           -2.49954
     73       0.00000          -0.091856           -2.49952
     74       0.00000          -0.041156           -1.11991
     75       0.00000          -0.041154           -1.11986
     76       0.00000          -0.041154           -1.11986
     77       0.00000          -0.032332           -0.87979
     78       0.00000          -0.032331           -0.87976
     79       0.00000          -0.012132           -0.33012
     80       0.00000          -0.012131           -0.33010
     81       0.00000           0.024694            0.67196
     82       0.00000           0.024697            0.67204
     83       0.00000           0.024698            0.67206
     84       0.00000           0.038714            1.05345
     85       0.00000           0.063049            1.71564
     86       0.00000           0.063049            1.71565
     87       0.00000           0.063050            1.71567
     88       0.00000           0.067304            1.83144
     89       0.00000           0.067306            1.83150
     90       0.00000           0.074914            2.03852
     91       0.00000           0.074915            2.03853
     92       0.00000           0.074915            2.03854
     93       0.00000           0.088133            2.39823
     94       0.00000           0.088134            2.39826
     95       0.00000           0.088135            2.39828

  What follows are estimated values for band gap, HOMO, LUMO, etc.
  | They are estimated on a discrete k-point grid and not necessarily exact.
  | For converged numbers, create a DOS and/or band structure plot on a denser k-grid.

  Highest occupied state (VBM) at     -8.72710400 eV (relative to internal zero)
  | Occupation number:      2.00000000
  | K-point:       3 at    0.000000    0.333333    0.000000 (in units of recip. lattice)

  Lowest unoccupied state (CBM) at    -5.69341721 eV (relative to internal zero)
  | Occupation number:      0.00000000
  | K-point:       1 at    0.000000    0.000000    0.000000 (in units of recip. lattice)

  ESTIMATED overall HOMO-LUMO gap:      3.03368679 eV between HOMO at k-point 3 and LUMO at k-point 1
  | This appears to be an indirect band gap.
  | Smallest direct gap :      3.03979452 eV for k_point 1 at    0.000000    0.000000    0.000000 (in units of recip. lattice)
  The gap value is above 0.2 eV. Unless you are using a very sparse k-point grid,
  this system is most likely an insulator or a semiconductor.

  Total energy components:
  | Sum of eigenvalues            :       -1634.34047655 Ha      -44472.66711131 eV
  | XC energy correction          :        -189.99546503 Ha       -5170.03965232 eV
  | XC potential correction       :         245.45008499 Ha        6679.03663816 eV
  | Free-atom electrostatic energy:       -1258.10513292 Ha      -34234.78251323 eV
  | Hartree energy correction     :          -0.32552257 Ha          -8.85791994 eV
  | Entropy correction            :          -0.00000000 Ha          -0.00000000 eV
  | ---------------------------
  | Total energy                  :       -2837.31651209 Ha      -77207.31055864 eV
  | Total energy, T -> 0          :       -2837.31651209 Ha      -77207.31055864 eV  <-- do not rely on this value for anything but (periodic) metals
  | Electronic free energy        :       -2837.31651209 Ha      -77207.31055864 eV

  Derived energy quantities:
  | Kinetic energy                :        2832.85160887 Ha       77085.81436047 eV
  | Electrostatic energy          :       -5480.17265593 Ha     -149123.08526679 eV
  | Energy correction for multipole
  | error in Hartree potential    :          -0.00075134 Ha          -0.02044501 eV
  | Sum of eigenvalues per atom                           :       -3420.97439318 eV
  | Total energy (T->0) per atom                          :       -5939.02388913 eV  <-- do not rely on this value for anything but (periodic) metals
  | Electronic free energy per atom                       :       -5939.02388913 eV

  Self-consistency convergence accuracy:
  | Change of charge density      :  0.2834E+00
  | Change of sum of eigenvalues  :  0.8966E+01 eV
  | Change of total energy        :  0.3370E+00 eV

  End self-consistency iteration #     1       :  max(cpu_time)    wall_clock(cpu1)
  | Time for this iteration                    :      227.605 s         227.656 s
  | Charge density update                      :      126.966 s         126.994 s
  | Density mixing & preconditioning           :       12.622 s          12.623 s
  | Hartree multipole update                   :        0.026 s           0.026 s
  | Hartree multipole summation                :       18.051 s          18.052 s
  | Integration                                :       68.880 s          68.899 s
  | Solution of K.-S. eqns.                    :        1.058 s           1.061 s
  | Total energy evaluation                    :        0.000 s           0.000 s

  Partial memory accounting:
  | Current value for overall tracked memory usage on task 0  :          46.723 MB
  | Peak value for overall tracked memory usage on task 0     :          79.881 MB after allocating wave
  | Largest tracked array allocation on task 0 so far         :          22.231 MB  when allocating hamiltonian_shell
  Note:  These values currently only include a subset of arrays which are explicitly tracked.
  The "true" memory usage will be greater.
------------------------------------------------------------

------------------------------------------------------------
          Begin self-consistency iteration #    2

  Date     :  20220223, Time     :  122745.909
------------------------------------------------------------
  Evaluating new KS density using the density matrix
  Evaluating density matrix
  Time summed over all CPUs for getting density from density matrix: real work      123.203 s, elapsed      123.203 s
  Integration grid: deviation in total charge (<rho> - N_e) =  -1.136868E-12
  Pulay mixing of updated and previous charge densities.

  Evaluating partitioned Hartree potential by multipole expansion.
  | Analytical far-field extrapolation by fixed multipoles:
  | Hartree multipole sum: apparent total charge =   0.162029E-01
  Summing up the Hartree potential.
  Time summed over all CPUs for potential: real work       20.538 s, elapsed       20.538 s
  | RMS charge density error from multipole expansion :   0.530360E-02
  | Average real-space part of the electrostatic potential :      0.20515354 eV

  Integrating Hamiltonian matrix: batch-based integration.
  Time summed over all CPUs for integration: real work       67.329 s, elapsed       67.329 s

[...]
  |   Free atom volume        :     76.98066615
  |   Hirshfeld volume        :     76.11794770
  |   Hirshfeld dipole vector :      0.00000000       0.00001331       0.00000948
  |   Hirshfeld dipole moment :      0.00001634
  |   Hirshfeld second moments:     -0.08784880      -0.00000000      -0.00000000
  |                                 -0.00000000      -0.08785090      -0.00004989
  |                                 -0.00000000      -0.00004989      -0.08783812
  ----------------------------------------------------------------------
  | Atom    13: Cl
  |   Hirshfeld charge        :     -0.29557304
  |   Free atom volume        :     66.13469196
  |   Hirshfeld volume        :     64.85419113
  |   Hirshfeld dipole vector :      0.00000000      -0.00000079       0.00002466
  |   Hirshfeld dipole moment :      0.00002467
  |   Hirshfeld second moments:     -0.04880589       0.00000000       0.00000000
  |                                  0.00000000      -0.04876233      -0.00000480
  |                                  0.00000000      -0.00000480      -0.04877356
  ----------------------------------------------------------------------

  | Many-Body Dispersion (MBD@rsSCS) energy
  | Total dynamic anisotropic polarizability, \alpha_{ij}(iu), (a.u.)
  | -------------------------------------------------------------------
  |      u            xx         yy         zz         yz         xz         xy
  |   0.000000    641.349    641.354    641.352      0.004      0.000      0.000
   Negative alpha! Aborting this iteration
  | --------------------------------------------------------------

  Total energy components:
  | Sum of eigenvalues            :       -1631.19935741 Ha      -44387.19291055 eV
  | XC energy correction          :        -190.36391216 Ha       -5180.06560876 eV
  | XC potential correction       :         245.91940842 Ha        6691.80757860 eV
  | Free-atom electrostatic energy:       -1258.10513292 Ha      -34234.78251323 eV
  | Hartree energy correction     :          -3.50139632 Ha         -95.27784168 eV
  | Entropy correction            :          -0.00000000 Ha          -0.00000000 eV
  | ---------------------------
  | Total energy                  :       -2837.25039039 Ha      -77205.51129562 eV
  | Total energy, T -> 0          :       -2837.25039039 Ha      -77205.51129562 eV  <-- do not rely on this value for anything but (periodic) metals
  | Electronic free energy        :       -2837.25039039 Ha      -77205.51129562 eV

  Derived energy quantities:
  | Kinetic energy                :        2832.73699670 Ha       77082.69560470 eV
  | Electrostatic energy          :       -5479.62347493 Ha     -149108.14129155 eV
  | Energy correction for multipole
  | error in Hartree potential    :          -0.01679228 Ha          -0.45694127 eV
  | Sum of eigenvalues per atom                           :       -3414.39945466 eV
  | Total energy (T->0) per atom                          :       -5938.88548428 eV  <-- do not rely on this value for anything but (periodic) metals
  | Electronic free energy per atom                       :       -5938.88548428 eV

  atomic forces [eV/Ang]:
  -----------------------
  atom #    1
   Hellmann-Feynman              : -0.341349E-01 -0.197834E-01  0.276824E-01
   Ionic forces                  :  0.000000E+00  0.000000E+00  0.000000E+00
   Multipole                     : -0.430772E-02 -0.237372E-02  0.344648E-02
   Pulay + GGA                   :  0.794037E-01  0.457733E-01 -0.645568E-01
   Van der Waals                 :  0.000000E+00  0.000000E+00  0.000000E+00
   ----------------------------------------------------------------
   Total forces(   1)            :  0.409610E-01  0.236162E-01 -0.334279E-01
  atom #    2
   Hellmann-Feynman              :  0.337015E-01  0.198056E-01 -0.279492E-01
   Ionic forces                  :  0.000000E+00  0.000000E+00  0.000000E+00
   Multipole                     :  0.425829E-02  0.223438E-02 -0.345885E-02
   Pulay + GGA                   : -0.788958E-01 -0.456754E-01  0.648533E-01
   Van der Waals                 :  0.000000E+00  0.000000E+00  0.000000E+00
   ----------------------------------------------------------------
   Total forces(   2)            : -0.409360E-01 -0.236355E-01  0.334452E-01
  atom #    3
   Hellmann-Feynman              :  0.341348E-01 -0.197834E-01  0.276823E-01
   Ionic forces                  :  0.000000E+00  0.000000E+00  0.000000E+00
   Multipole                     :  0.430772E-02 -0.237372E-02  0.344648E-02
   Pulay + GGA                   : -0.794037E-01  0.457734E-01 -0.645568E-01
   Van der Waals                 :  0.000000E+00  0.000000E+00  0.000000E+00
   ----------------------------------------------------------------
   Total forces(   3)            : -0.409611E-01  0.236163E-01 -0.334280E-01
  atom #    4
   Hellmann-Feynman              : -0.337016E-01  0.198057E-01 -0.279492E-01
   Ionic forces                  :  0.000000E+00  0.000000E+00  0.000000E+00
   Multipole                     : -0.425829E-02  0.223437E-02 -0.345886E-02
   Pulay + GGA                   :  0.788958E-01 -0.456754E-01  0.648533E-01
   Van der Waals                 :  0.000000E+00  0.000000E+00  0.000000E+00
   ----------------------------------------------------------------
   Total forces(   4)            :  0.409359E-01 -0.236354E-01  0.334452E-01
  atom #    5
   Hellmann-Feynman              :  0.899937E-09 -0.399664E-01 -0.278050E-01
   Ionic forces                  :  0.000000E+00  0.000000E+00  0.000000E+00
   Multipole                     : -0.183817E-08 -0.486872E-02 -0.342542E-02
   Pulay + GGA                   : -0.349754E-08  0.921517E-01  0.646475E-01
   Van der Waals                 :  0.000000E+00  0.000000E+00  0.000000E+00
   ----------------------------------------------------------------
   Total forces(   5)            : -0.443577E-08  0.473166E-01  0.334171E-01
  atom #    6
   Hellmann-Feynman              : -0.513494E-07  0.394100E-01  0.280979E-01
   Ionic forces                  :  0.000000E+00  0.000000E+00  0.000000E+00
   Multipole                     :  0.549737E-08  0.493717E-02  0.330861E-02
   Pulay + GGA                   :  0.232083E-07 -0.915896E-01 -0.648993E-01
   Van der Waals                 :  0.000000E+00  0.000000E+00  0.000000E+00
   ----------------------------------------------------------------
   Total forces(   6)            : -0.226437E-07 -0.472424E-01 -0.334929E-01
  atom #    7
   Hellmann-Feynman              : -0.841456E-06 -0.183141E-02 -0.460121E-03
   Ionic forces                  :  0.000000E+00  0.000000E+00  0.000000E+00
   Multipole                     : -0.512158E-07  0.103417E-02  0.270245E-03
   Pulay + GGA                   :  0.179425E-06  0.816312E-03  0.125870E-03
   Van der Waals                 :  0.000000E+00  0.000000E+00  0.000000E+00
   ----------------------------------------------------------------
   Total forces(   7)            : -0.713246E-06  0.190719E-04 -0.640055E-04
  atom #    8
   Hellmann-Feynman              : -0.123513E+02  0.713130E+01  0.504011E+01
   Ionic forces                  :  0.000000E+00  0.000000E+00  0.000000E+00
   Multipole                     :  0.252743E+00 -0.145191E+00 -0.103069E+00
   Pulay + GGA                   :  0.124955E+02 -0.721515E+01 -0.509908E+01
   Van der Waals                 :  0.000000E+00  0.000000E+00  0.000000E+00
   ----------------------------------------------------------------
   Total forces(   8)            :  0.396935E+00 -0.229043E+00 -0.162040E+00
  atom #    9
   Hellmann-Feynman              : -0.142593E-06 -0.162006E-02 -0.151311E+02
   Ionic forces                  :  0.000000E+00  0.000000E+00  0.000000E+00
   Multipole                     : -0.841572E-08  0.115295E-02  0.310269E+00
   Pulay + GGA                   :  0.336382E-06  0.535840E-03  0.153068E+02
   Van der Waals                 :  0.000000E+00  0.000000E+00  0.000000E+00
   ----------------------------------------------------------------
   Total forces(   9)            :  0.185374E-06  0.687300E-04  0.486010E+00
  atom #   10
   Hellmann-Feynman              : -0.138725E-06 -0.142668E+02  0.504365E+01
   Ionic forces                  :  0.000000E+00  0.000000E+00  0.000000E+00
   Multipole                     : -0.866598E-08  0.293837E+00 -0.102357E+00
   Pulay + GGA                   :  0.331930E-06  0.144317E+02 -0.510338E+01
   Van der Waals                 :  0.000000E+00  0.000000E+00  0.000000E+00
   ----------------------------------------------------------------
   Total forces(  10)            :  0.184540E-06  0.458777E+00 -0.162091E+00
  atom #   11
   Hellmann-Feynman              :  0.123513E+02  0.713130E+01  0.504011E+01
   Ionic forces                  :  0.000000E+00  0.000000E+00  0.000000E+00
   Multipole                     : -0.252743E+00 -0.145191E+00 -0.103069E+00
   Pulay + GGA                   : -0.124955E+02 -0.721516E+01 -0.509908E+01
   Van der Waals                 :  0.000000E+00  0.000000E+00  0.000000E+00
   ----------------------------------------------------------------
   Total forces(  11)            : -0.396935E+00 -0.229043E+00 -0.162040E+00
  atom #   12
   Hellmann-Feynman              : -0.481188E-06 -0.667154E-03  0.316556E-02
   Ionic forces                  :  0.000000E+00  0.000000E+00  0.000000E+00
   Multipole                     :  0.514366E-08  0.336525E-03 -0.166026E-02
   Pulay + GGA                   :  0.600358E-06  0.383964E-03 -0.154323E-02
   Van der Waals                 :  0.000000E+00  0.000000E+00  0.000000E+00
   ----------------------------------------------------------------
   Total forces(  12)            :  0.124314E-06  0.533357E-04 -0.379338E-04
  atom #   13
   Hellmann-Feynman              : -0.153228E-06  0.254058E-03 -0.915057E-03
   Ionic forces                  :  0.000000E+00  0.000000E+00  0.000000E+00
   Multipole                     :  0.983193E-10  0.546681E-05 -0.814805E-05
   Pulay + GGA                   :  0.126498E-06 -0.325129E-03  0.852239E-03
   Van der Waals                 :  0.000000E+00  0.000000E+00  0.000000E+00
   ----------------------------------------------------------------
   Total forces(  13)            : -0.266319E-07 -0.656038E-04 -0.709661E-04

  Timings for VdW correction (Tkatchenko-Scheffler 2009 or later):
  | CPU time:       64.467 s, Wall clock time:       64.496 s.
  Removing unitary transformations (pure translations, rotations) from forces on atoms.
  Atomic forces before filtering:
  | Net force on center of mass :   0.135746E-06  0.802948E-03 -0.375986E-03 eV/A
  Atomic forces after filtering:
  | Net force on center of mass :  -0.803381E-16 -0.415744E-16 -0.235857E-16 eV/A

  Energy and forces in a compact form:
  | Total energy uncorrected      :         -0.772055112956156E+05 eV
  | Total energy corrected        :         -0.772055112956156E+05 eV  <-- do not rely on this value for anything but (periodic) metals
  | Electronic free energy        :         -0.772055112956156E+05 eV
  Total atomic forces (unitary forces cleaned) [eV/Ang]:
  |   1          0.409609999092883E-01          0.235544771429537E-01         -0.333990259257626E-01
  |   2         -0.409360588013160E-01         -0.236972244911184E-01          0.334741658994672E-01
  |   3         -0.409611198499098E-01          0.235545068740598E-01         -0.333990913369202E-01
  |   4          0.409359370680223E-01         -0.236971763911963E-01          0.334741164622043E-01
  |   5         -0.148777886607548E-07          0.472547994071671E-01          0.334460191892576E-01
  |   6         -0.330857323057260E-07         -0.473041297197778E-01         -0.334639299487729E-01
  |   7         -0.723688184281640E-06         -0.426933398741575E-04         -0.350834976195004E-04
  |   8          0.396935294037427E+00         -0.229104423595907E+00         -0.162011407065507E+00
  |   9          0.174931499340970E-06          0.696468849382714E-05          0.486038851060231E+00
  |  10          0.174097534417789E-06          0.458714989883840E+00         -0.162062251573604E+00
  |  11         -0.396934706539216E+00         -0.229104291804355E+00         -0.162011307350928E+00
  |  12          0.113872301120791E-06         -0.842957376657867E-05         -0.901182486259822E-05
  |  13         -0.370739251964830E-07         -0.127369080519320E-03         -0.420440871826148E-04

  ------------------------------------ 
  Start decomposition of the XC Energy 
  ------------------------------------ 
  X and C from original XC functional choice 
  Hartree-Fock Energy :          0.000000000 Ha              0.000000000 eV
  X Energy            :       -185.535134047 Ha          -5048.667870803 eV
  C Energy            :         -4.828778115 Ha           -131.397737956 eV
  Total XC Energy     :       -190.363912162 Ha          -5180.065608759 eV
  ------------------------------------ 
  LDA X and C from self-consistent density 
  X Energy LDA        :       -171.586256951 Ha          -4669.099612802 eV
  C Energy LDA        :         -9.776073955 Ha           -266.020507289 eV
  ------------------------------------ 
  End decomposition of the XC Energy 
  ------------------------------------ 

------------------------------------------------------------

------------------------------------------------------------------------------
  Final output of selected total energy values:

  The following output summarizes some interesting total energy values
  at the end of a run (AFTER all relaxation, molecular dynamics, etc.).

  | Total energy of the DFT / Hartree-Fock s.c.f. calculation      :         -77205.511295616 eV
  | Final zero-broadening corrected energy (caution - metals only) :         -77205.511295616 eV
  | For reference only, the value of 1 Hartree used in FHI-aims is :             27.211384500 eV

  Before relying on these values, please be sure to understand exactly which
  total energy value is referred to by a given number. Different objects may
  all carry the same name 'total energy'. Definitions:

  Total energy of the DFT / Hartree-Fock s.c.f. calculation:
  | Note that this energy does not include ANY quantities calculated after the
  | s.c.f. cycle, in particular not ANY RPA, MP2, etc. many-body perturbation terms.

  Final zero-broadening corrected energy:
  | For metallic systems only, a broadening of the occupation numbers at the Fermi
  | level can be extrapolated back to zero broadening by an electron-gas inspired
  | formula. For all systems that are not real metals, this value can be
  | meaningless and should be avoided.

------------------------------------------------------------------------------
  Methods described in the following list of references were used in this FHI-aims run.
  If you publish the results, please make sure to cite these reference if they apply.
  FHI-aims is an academic code, and for our developers (often, Ph.D. students
  and postdocs), scientific credit in the community is essential.
  Thank you for helping us!

  For any use of FHI-aims, please cite:

    Volker Blum, Ralf Gehrke, Felix Hanke, Paula Havu, Ville Havu,
    Xinguo Ren, Karsten Reuter, and Matthias Scheffler
    'Ab initio molecular simulations with numeric atom-centered orbitals'
    Computer Physics Communications 180, 2175-2196 (2009)
    http://dx.doi.org/10.1016/j.cpc.2009.06.022


  The provided symmetry information was generated with SPGlib:

    Atsushi Togo, Yusuke Seto, Dimitar Pashov
    SPGlib 1.7.3 obtained from http://spglib.sourceforge.net
    Copyright (C) 2008 Atsushi Togo


  The scalable eigensolver library ELPA was used in your run.
  ELPA is essential especially for large systems on hundreds or thousands of CPUs.
  For ELPA, please cite:

    Andreas Marek, Volker Blum, Rainer Johanni, Ville Havu, Bruno Lang,
    Thomas Auckenthaler, Alexander Heinecke, Hans-Joachim Bungartz, and Hermann Lederer,
    'The ELPA Library - Scalable Parallel Eigenvalue Solutions
    for Electronic Structure Theory and Computational Science'
    The Journal of Physics: Condensed Matter 26, 213201 (2014).
    http://dx.doi.org/10.1088/0953-8984/26/21/213201


  The ELSI infrastructure was used in your run to solve the Kohn-Sham electronic structure.
  Please check out http://elsi-interchange.org to learn more.
  If scalability is important for your project, please acknowledge ELSI by citing:

    V. W-z. Yu, F. Corsetti, A. Garcia, W. P. Huhn, M. Jacquelin, W. Jia,
    B. Lange, L. Lin, J. Lu, W. Mi, A. Seifitokaldani, A. Vazquez-Mayagoitia,
    C. Yang, H. Yang, and V. Blum
    'ELSI: A unified software interface for Kohn-Sham electronic structure solvers'
    Computer Physics Communications 222, 267-285 (2018).
    http://dx.doi.org/10.1016/j.cpc.2017.09.007


  For the real-space grid partitioning and parallelization used in this calculation, please cite:

    Ville Havu, Volker Blum, Paula Havu, and Matthias Scheffler,
    'Efficient O(N) integration for all-electron electronic structure calculation'
    'using numerically tabulated basis functions'
    Journal of Computational Physics 228, 8367-8379 (2009).
    http://dx.doi.org/10.1016/j.jcp.2009.08.008

  Of course, there are many other important community references, e.g., those cited in the
  above references. Our list is limited to references that describe implementations in the
  FHI-aims code. The reason is purely practical (length of this list) - please credit others as well.

------------------------------------------------------------
          Leaving FHI-aims.
          Date     :  20220223, Time     :  140351.014

          Computational steps:
          | Number of self-consistency cycles          :           21
          | Number of SCF (re)initializations          :            1

          Detailed time accounting                     :  max(cpu_time)    wall_clock(cpu1)
          | Total time                                 :     6134.657 s        6139.426 s
          | Preparation time                           :        0.326 s           0.328 s
          | Boundary condition initalization           :        0.555 s           0.556 s
          | Grid partitioning                          :        2.829 s           2.833 s
          | Preloading free-atom quantities on grid    :        0.014 s           0.014 s
          | Free-atom superposition energy             :        2.044 s           2.044 s
          | Total time for integrations                :     1563.222 s        1564.436 s
          | Total time for solution of K.-S. equations :       22.072 s          22.091 s
          | Total time for density & force components  :     3658.694 s        3661.625 s
          | Total time for mixing & preconditioning    :      220.193 s         220.320 s
          | Total time for Hartree multipole update    :        0.545 s           0.548 s
          | Total time for Hartree multipole sum       :      584.246 s         584.631 s
          | Total time for total energy evaluation     :        0.003 s           0.005 s
          | Total time for vdW correction              :       64.467 s          64.496 s

          Partial memory accounting:
          | Residual value for overall tracked memory usage across tasks :           0.000 MB (should be 0.000 MB)
          | Peak values for overall tracked memory usage (after allocating wave_pulay):
          |   Minimum:      104.695 MB (on task 1)
          |   Maximum:      104.695 MB (on task 1)
          |   Average:      104.695 MB
          | Largest tracked array allocation (hamiltonian_shell):
          |   Minimum:       22.231 MB (on task 1)
          |   Maximum:       22.231 MB (on task 1)
          |   Average:       22.231 MB
          Note:  These values currently only include a subset of arrays which are explicitly tracked.
          The "true" memory usage will be greater.

          Have a nice day.
------------------------------------------------------------
