  MPI-parallelism will be employed.
------------------------------------------------------------
          Invoking FHI-aims ...
          Version 171221_1
          Compiled on 2020/11/22 at 19:48:33 on host core401.

          When using FHI-aims, please cite the following reference:

          Volker Blum, Ralf Gehrke, Felix Hanke, Paula Havu,
          Ville Havu, Xinguo Ren, Karsten Reuter, and Matthias Scheffler,
          'Ab Initio Molecular Simulations with Numeric Atom-Centered Orbitals',
          Computer Physics Communications 180, 2175-2196 (2009)

          For any questions about FHI-aims, please visit the aimsclub website
          with its forums and wiki. Contributions to both the forums and the
          wiki are warmly encouraged - they are for you, and everyone is welcome there.

------------------------------------------------------------



  Date     :  20220223, Time     :  090104.188
  Time zero on CPU 1             :   0.491500000000000E-01  s.
  Internal wall clock time zero  :           414838864.188  s.

  FHI-aims created a unique identifier for this run for later identification
  aims_uuid : D6492CF9-2F8B-49F2-A328-B65A4882E272

  Using        1 parallel tasks.
  Task        0 on host core401 reporting.

  Performing system and environment tests:
  *** Environment variable OMP_NUM_THREADS is not set
  *** For performance reasons you might want to set it to 1
  | Maximum stacksize for task 0: unlimited
  | Current stacksize for task 0: unlimited
  | Checking for scalapack...
  | Testing pdtran()...
  | All pdtran() tests passed.

  Obtaining array dimensions for all initial allocations:
  
  -----------------------------------------------------------------------
  Parsing control.in (first pass over file, find array dimensions only).
  The contents of control.in will be repeated verbatim below
  unless switched off by setting 'verbatim_writeout .false.' .
  in the first line of control.in .
  -----------------------------------------------------------------------
  
  #===============================================================================
  # FHI-aims file: ./control.in
  # Created using the Atomic Simulation Environment (ASE)
  # Wed Mar 24 12:41:28 2021
  #===============================================================================
  xc                                 pbe
  # relax_geometry                     bfgs 1e-4
  sc_accuracy_etot                   1e-06
  sc_accuracy_eev                    0.001
  sc_accuracy_rho                    1e-06
  sc_accuracy_forces                 0.0001
  many_body_dispersion
  k_grid                             3 3 3
  
    #output band 0.0   0.0   0.0   0.5   0.5   0.0    10  Gamma M
    #output band 0.5   0.5   0.0   0.5   0.5   0.5    10  M     R
    #output band 0.5   0.5   0.5   0.0   0.5   0.0    10  R     X
  
    #output  dos              -18. 10. 200 0.1
    #output  species_proj_dos -18. 10. 200 0.1
  
  #===============================================================================
  
  ################################################################################
  #
  #  FHI-aims code project
  # Volker Blum, Fritz Haber Institute Berlin, 2009
  #
  #  Suggested "tight" defaults for Li atom (to be pasted into control.in file)
  #
  #  2016/03/22: Increased cutoff radius to 5.0 AA (Xinguo Ren, Aug 15, 2015)
  #
  ################################################################################
    species        Li
  #     global species definitions
      nucleus             3
      mass                6.941
  #
      l_hartree           6
  #
      cut_pot             5.0  2.0  1.0
      basis_dep_cutoff    1e-4
  #
      radial_base         29 7.0
      radial_multiplier   2
      angular_grids       specified
        division   0.4484  110
        division   0.5659  194
        division   0.6315  302
        division   0.6662  434
  #      division   0.8186  590
  #      division   0.9037  770
  #      division   6.2760  974
  #      outer_grid   974
        outer_grid  434
  ################################################################################
  #
  #  Definition of "minimal" basis
  #
  ################################################################################
  #     valence basis states
      valence      2  s   1.
  #     ion occupancy
      ion_occ      1  s   2.
  ################################################################################
  #
  #  Suggested additional basis functions. For production calculations,
  #  uncomment them one after another (the most important basis functions are
  #  listed first).
  #
  #  Constructed for dimers: 1.80 A, 2.25 A, 2.75 A, 3.50 A, 4.50 A
  #
  ################################################################################
  #  "First tier" - improvements: -189.23 meV to -6.35 meV
       hydro 2 p 1.6
       hydro 2 s 2
       hydro 3 d 2.6
  #  "Second tier" - improvements: -4.69 meV to -0.41 meV
       hydro 3 p 4.6
       hydro 2 p 1.8
       hydro 3 s 6.2
       hydro 4 d 4.7
       hydro 4 f 4.1
  #  "Third tier" - improvements: -0.20 meV to -0.15 meV
  #     hydro 4 d 0.95
  #     hydro 3 p 6.2
  #     hydro 3 s 1.7
  #  Further functions, listed for completeness
  #     VB: The following functions are only listed for completeness; test very
  #         carefully before any kind of production use. From the point of view
  #         of the basis construction, their main role is to fill up space,
  #         and they are solely determined by the location of the cutoff potential.
  #     hydro 3 p 0.1  # -0.15 meV
  #     hydro 4 d 5    # -0.12 meV
  #     hydro 4 f 0.1  # -0.14 meV
  #     hydro 5 g 0.1  # -0.06 meV
  
  
  ################################################################################
  #
  # For methods that use the localized form of the "resolution of identity" for
  # the two-electron Coulomb operator (RI_method LVL), particularly Hartree-Fock and
  # hybrid density functional calculations, the highest accuracy can be obtained by
  # uncommenting the line beginning with "for_aux"  below, thus adding an extra g radial
  # function to the construction of the product basis set for the expansion.
  # See Ref. New J. Phys. 17, 093020 (2015) for more information, particularly Figs. 1 and 6.
  #
  ################################################################################
  #
  # for_aux hydro 5 g 6.0
  ################################################################################
  #
  #  FHI-aims code project
  # Volker Blum, Fritz Haber Institute Berlin, 2010
  #
  #  Suggested "tight" defaults for P atom (to be pasted into control.in file)
  #
  #  Revised Jan 04, 2011, following tests (SiC) done by Lydia Nemec:
  #     d function of tier 2 now enabled by default.
  #
  ################################################################################
    species        P
  #     global species definitions
      nucleus             15
      mass                30.973762
  #
      l_hartree           6
  #
      cut_pot             4.0          2.0  1.0
      basis_dep_cutoff    1e-4
  #
      radial_base         43 7.0
      radial_multiplier   2
      angular_grids       specified
        division   0.2995   50
        division   0.5998  110
        division   0.9240  194
        division   1.0921  302
        division   1.2863  434
  #      division   1.3165  590
  #      division   1.4113  770
  #      division   1.5128  974
  #      division   2.4980 1202
        outer_grid  434
  ################################################################################
  #
  #  Definition of "minimal" basis
  #
  ################################################################################
  #     valence basis states
      valence      3  s   2.
      valence      3  p   3.
  #     ion occupancy
      ion_occ      3  s   1.
      ion_occ      3  p   2.
  ################################################################################
  #
  #  Suggested additional basis functions. For production calculations,
  #  uncomment them one after another (the most important basis functions are
  #  listed first).
  #
  #  Constructed for dimers: 1.625 A, 1.875 A, 2.5 A, 3.25 A, 4.0 A
  #
  ################################################################################
  #  "First tier" - improvements: -726.20 meV to -35.91 meV
       ionic 3 d auto
       ionic 3 p auto
       hydro 4 f 6.2
       hydro 5 g 8.6
       ionic 3 s auto
  #  "Second tier" - improvements: -16.02 meV to -1.71 meV
       hydro 4 d 6.2
  #     hydro 4 p 9.2
  #     hydro 5 f 9.8
  #     hydro 1 s 0.7
  #     hydro 5 g 13.2
  #  "Third tier" - improvements: -1.82 meV to -0.20 meV
  #     hydro 3 p 2.5
  #     hydro 4 d 6.4
  #     hydro 5 f 11.2
  #     hydro 2 s 1.5
  #  "Fourth tier" - improvements: -0.91 meV to -0.17 meV
  #     hydro 3 d 16.8
  #     hydro 5 g 18
  #     hydro 4 p 4.5
  #     hydro 3 s 2.1
  #  Further basis functions that fell out of the optimization - < -0.09 meV
  #     hydro 4 p 10.4
  #     hydro 4 d 17.6
  #     hydro 4 s 11.2
  ################################################################################
  #
  # For methods that use the localized form of the "resolution of identity" for
  # the two-electron Coulomb operator (RI_method LVL), particularly Hartree-Fock and
  # hybrid density functional calculations, the highest accuracy can be obtained by
  # uncommenting the line beginning with "for_aux"  below, thus adding an extra g radial
  # function to the construction of the product basis set for the expansion.
  # See Ref. New J. Phys. 17, 093020 (2015) for more information, particularly Figs. 1 and 6.
  #
  ################################################################################
  #
  # for_aux hydro 5 g 6.0
  ################################################################################
  #
  #  FHI-aims code project
  # Volker Blum, Fritz Haber Institute Berlin, 2009
  #
  #  Suggested "tight" defaults for S atom (to be pasted into control.in file)
  #
  #  Revised Jan 04, 2011, following tests (SiC) done by Lydia Nemec:
  #     d and g functions of tier 2 now enabled by default.
  #
  ################################################################################
    species        S
  #     global species definitions
      nucleus             16
      mass                32.065
  #
      l_hartree           6
  #
      cut_pot             4.0          2.0  1.0
      basis_dep_cutoff    1e-4
  #
      radial_base         44 7.0
      radial_multiplier   2
      angular_grids       specified
        division   0.4665  110
        division   0.5810  194
        division   0.7139  302
        division   0.8274  434
  #      division   0.9105  590
  #      division   1.0975  770
  #      division   1.2028  974
  #      outer_grid  974
        outer_grid  434
  ################################################################################
  #
  #  Definition of "minimal" basis
  #
  ################################################################################
  #     valence basis states
      valence      3  s   2.
      valence      3  p   4.
  #     ion occupancy
      ion_occ      3  s   1.
      ion_occ      3  p   3.
  ################################################################################
  #
  #  Suggested additional basis functions. For production calculations,
  #  uncomment them one after another (the most important basis functions are
  #  listed first).
  #
  #  Constructed for dimers: 1.6 A, 1.9 A, 2.5 A, 3.25 A, 4.0 A
  #
  ################################################################################
  #  "First tier" - improvements: -652.81 meV to -45.53 meV
       ionic 3 d auto
       hydro 2 p 1.8
       hydro 4 f 7
       ionic 3 s auto
  #  "Second tier" - improvements: -30.20 meV to -1.74 meV
       hydro 4 d 6.2
       hydro 5 g 10.8
  #     hydro 4 p 4.9
  #     hydro 5 f 10
  #     hydro 1 s 0.8
  #  "Third tier" - improvements: -1.04 meV to -0.20 meV
  #     hydro 3 d 3.9
  #     hydro 3 d 2.7
  #     hydro 5 g 12
  #     hydro 4 p 10.4
  #     hydro 5 f 12.4
  #     hydro 2 s 1.9
  #  "Fourth tier" - improvements: -0.35 meV to -0.06 meV
  #     hydro 4 d 10.4
  #     hydro 4 p 7.2
  #     hydro 4 d 10
  #     hydro 5 g 19.2
  #     hydro 4 s 12
  
  ################################################################################
  #
  # For methods that use the localized form of the "resolution of identity" for
  # the two-electron Coulomb operator (RI_method LVL), particularly Hartree-Fock and
  # hybrid density functional calculations, the highest accuracy can be obtained by
  # uncommenting the line beginning with "for_aux"  below, thus adding an extra g radial
  # function to the construction of the product basis set for the expansion.
  # See Ref. New J. Phys. 17, 093020 (2015) for more information, particularly Figs. 1 and 6.
  #
  ################################################################################
  #
  # for_aux hydro 5 g 6.0
  ################################################################################
  #
  #  FHI-aims code project
  # Volker Blum, Fritz Haber Institute Berlin, 2009
  #
  #  Suggested "tight" defaults for Cl atom (to be pasted into control.in file)
  #
  #  Revised Jan 04, 2011, following tests (SiC) done by Lydia Nemec:
  #     d function of tier 2 now enabled by default.
  #
  ################################################################################
    species        Cl
  #     global species definitions
      nucleus             17
      mass                35.453
  #
      l_hartree           6
  #
      cut_pot             4.0          2.0  1.0
      basis_dep_cutoff    1e-4
  #
      radial_base         45 7.0
      radial_multiplier   2
      angular_grids       specified
        division   0.4412  110
        division   0.5489  194
        division   0.6734  302
        division   0.7794  434
  #      division   0.9402  590
  #      division   1.0779  770
  #      division   1.1792  974
  #      outer_grid  974
        outer_grid  434
  ################################################################################
  #
  #  Definition of "minimal" basis
  #
  ################################################################################
  #     valence basis states
      valence      3  s   2.
      valence      3  p   5.
  #     ion occupancy
      ion_occ      3  s   1.
      ion_occ      3  p   4.
  ################################################################################
  #
  #  Suggested additional basis functions. For production calculations,
  #  uncomment them one after another (the most important basis functions are
  #  listed first).
  #
  #  Constructed for dimers: 1.65 A, 2.0 A, 2.5 A, 3.25 A, 4.0 A
  #
  ################################################################################
  #  "First tier" - improvements: -429.57 meV to -15.03 meV
       ionic 3 d auto
       hydro 2 p 1.9
       hydro 4 f 7.4
       ionic 3 s auto
       hydro 5 g 10.4
  #  "Second tier" - improvements: -7.84 meV to -0.48 meV
       hydro 3 d 3.3
  #     hydro 5 f 9.8
  #     hydro 1 s 0.75
  #     hydro 5 g 11.2
  #     hydro 4 p 10.4
  #  "Third tier" - improvements: -1.00 meV to -0.12 meV
  #     hydro 4 d 12.8
  #     hydro 4 f 4.6
  #     hydro 4 d 10.8
  #     hydro 2 s 1.8
  #     hydro 3 p 3
  #  Further functions that fell out - improvements: -0.10 meV and below
  #     hydro 5 f 14.4
  #     hydro 4 s 12.8
  #     hydro 3 d 11.6
  #     hydro 4 s 4.1
  ################################################################################
  #
  # For methods that use the localized form of the "resolution of identity" for
  # the two-electron Coulomb operator (RI_method LVL), particularly Hartree-Fock and
  # hybrid density functional calculations, the highest accuracy can be obtained by
  # uncommenting the line beginning with "for_aux"  below, thus adding an extra g radial
  # function to the construction of the product basis set for the expansion.
  # See Ref. New J. Phys. 17, 093020 (2015) for more information, particularly Figs. 1 and 6.
  #
  ################################################################################
  #
  # for_aux hydro 5 g 6.0
  
  
  -----------------------------------------------------------------------
  Completed first pass over input file control.in .
  -----------------------------------------------------------------------
  
  
  -----------------------------------------------------------------------
  Parsing geometry.in (first pass over file, find array dimensions only).
  The contents of geometry.in will be repeated verbatim below
  unless switched off by setting 'verbatim_writeout .false.' .
  in the first line of geometry.in .
  -----------------------------------------------------------------------
  
  #=======================================================
  # FHI-aims file: ./geo/geometry.in.5
  # Created using the Atomic Simulation Environment (ASE)
  # Tue Feb 22 23:54:07 2022
  #=======================================================
  lattice_vector 7.2687027400000002 0.0000000000000000 0.0000000000000000
  lattice_vector 3.6343513700000010 6.2948812253975550 0.0000000000000000
  lattice_vector 3.6343513700000010 2.0982937417991856 5.9348709349899931
  atom 1.9851772114296204 1.1461425974080020 2.8302627955745727 Li
  atom 5.2835255285703804 3.0504448861903688 0.1371726719204237 Li
  atom 5.2835255285703804 1.1461425974080020 2.8302627955745727 Li
  atom 1.9851772114296204 3.0504448861903688 0.1371726719204237 Li
  atom 3.6343513700000001 0.1939914530168183 0.1371726719204237 Li
  atom 3.6343513700000010 4.0025960305815520 2.8302627955745727 Li
  atom 7.2687027400000011 4.1965874835983703 2.9674354674949965 P
  atom 5.5893077141086058 5.1661866119066113 3.6530455861543190 S
  atom 7.2687027036564880 4.1965874626154340 0.9106050521683197 S
  atom 7.2687027036564880 2.2573891640330763 3.6530455861543190 S
  atom 8.9480976932043692 5.1661866119066113 3.6530455861543190 S
  atom 3.6343513700000005 2.0982937417991852 1.4837177337474983 S
  atom 0.0000000000000000 0.0000000000000000 0.0000000000000000 Cl
  
  -----------------------------------------------------------------------
  Completed first pass over input file geometry.in .
  -----------------------------------------------------------------------
  

  Basic array size parameters:
  | Number of species                 :        4
  | Number of atoms                   :       13
  | Number of lattice vectors         :        3
  | Max. basis fn. angular momentum   :        4
  | Max. atomic/ionic basis occupied n:        3
  | Max. number of basis fn. types    :        3
  | Max. radial fns per species/type  :        8
  | Max. logarithmic grid size        :     1362
  | Max. radial integration grid size :       91
  | Max. angular integration grid size:      434
  | Max. angular grid division number :        8
  | Radial grid for Hartree potential :     1362
  | Number of spin channels           :        1

------------------------------------------------------------
          Reading file control.in.
------------------------------------------------------------
  XC: Using PBE gradient-corrected functionals.
  Convergence accuracy of total energy:  0.1000E-05
  Convergence accuracy of sum of eigenvalues:  0.1000E-02
  Convergence accuracy of self-consistent charge density:  0.1000E-05
  Convergence accuracy of forces:  0.1000E-03
  Using the default MBD implementation with analytical forces
  Found k-point grid:         3         3         3
 
  Reading configuration options for species Li                  .
  | Found nuclear charge :   3.0000
  | Found atomic mass :    6.94100000000000      amu
  | Found l_max for Hartree potential  :   6
  | Found cutoff potl. onset [A], width [A], scale factor :    5.00000    2.00000    1.00000
  | Threshold for basis-dependent cutoff potential is   0.100000E-03
  | Found data for basic radial integration grid :    29 points, outermost radius =    7.000 A
  | Found multiplier for basic radial grid :   2
  | Found angular grid specification: user-specified.
  | Specified grid contains     5 separate shells.
  | Check grid settings after all constraints further below.
  | Found free-atom valence shell :  2 s   1.000
  | Found free-ion valence shell :  1 s   2.000
  | Found hydrogenic basis function :  2 p   1.600
  | Found hydrogenic basis function :  2 s   2.000
  | Found hydrogenic basis function :  3 d   2.600
  | Found hydrogenic basis function :  3 p   4.600
  | Found hydrogenic basis function :  2 p   1.800
  | Found hydrogenic basis function :  3 s   6.200
  | Found hydrogenic basis function :  4 d   4.700
  | Found hydrogenic basis function :  4 f   4.100
  Species Li                  : Missing cutoff potential type.
  Defaulting to exp(1/x)/(1-x)^2 type cutoff potential.
  Species Li: No 'logarithmic' tag. Using default grid for free atom:
  | Default logarithmic grid data [bohr] : 0.1000E-03 0.1000E+03 0.1012E+01
  Species Li: On-site basis accuracy parameter (for Gram-Schmidt orthonormalisation) not specified.
  Using default value basis_acc =  0.1000000E-03.
  Species Li                  : Using default innermost maximum threshold i_radial=  2 for radial functions.
  Species Li                  : Default cutoff onset for free atom density etc. : 0.50000000E+01 AA.
  Species Li                  : Basic radial grid will be enhanced according to radial_multiplier =   2, to contain    59 grid points.
 
  Reading configuration options for species P                   .
  | Found nuclear charge :  15.0000
  | Found atomic mass :    30.9737620000000      amu
  | Found l_max for Hartree potential  :   6
  | Found cutoff potl. onset [A], width [A], scale factor :    4.00000    2.00000    1.00000
  | Threshold for basis-dependent cutoff potential is   0.100000E-03
  | Found data for basic radial integration grid :    43 points, outermost radius =    7.000 A
  | Found multiplier for basic radial grid :   2
  | Found angular grid specification: user-specified.
  | Specified grid contains     6 separate shells.
  | Check grid settings after all constraints further below.
  | Found free-atom valence shell :  3 s   2.000
  | Found free-atom valence shell :  3 p   3.000
  | Found free-ion valence shell :  3 s   1.000
  | Found free-ion valence shell :  3 p   2.000
  | Found ionic basis function :  3 d , default cutoff radius.
  | Found ionic basis function :  3 p , default cutoff radius.
  | Found hydrogenic basis function :  4 f   6.200
  | Found hydrogenic basis function :  5 g   8.600
  | Found ionic basis function :  3 s , default cutoff radius.
  | Found hydrogenic basis function :  4 d   6.200
  Species P                   : Missing cutoff potential type.
  Defaulting to exp(1/x)/(1-x)^2 type cutoff potential.
  Species P : No 'logarithmic' tag. Using default grid for free atom:
  | Default logarithmic grid data [bohr] : 0.1000E-03 0.1000E+03 0.1012E+01
  | Will include ionic basis functions of  2.0-fold positive P                    ion.
  Species P : On-site basis accuracy parameter (for Gram-Schmidt orthonormalisation) not specified.
  Using default value basis_acc =  0.1000000E-03.
  Species P                   : Using default innermost maximum threshold i_radial=  2 for radial functions.
  Species P                   : Default cutoff onset for free atom density etc. : 0.40000000E+01 AA.
  Species P                   : Basic radial grid will be enhanced according to radial_multiplier =   2, to contain    87 grid points.
 
  Reading configuration options for species S                   .
  | Found nuclear charge :  16.0000
  | Found atomic mass :    32.0650000000000      amu
  | Found l_max for Hartree potential  :   6
  | Found cutoff potl. onset [A], width [A], scale factor :    4.00000    2.00000    1.00000
  | Threshold for basis-dependent cutoff potential is   0.100000E-03
  | Found data for basic radial integration grid :    44 points, outermost radius =    7.000 A
  | Found multiplier for basic radial grid :   2
  | Found angular grid specification: user-specified.
  | Specified grid contains     5 separate shells.
  | Check grid settings after all constraints further below.
  | Found free-atom valence shell :  3 s   2.000
  | Found free-atom valence shell :  3 p   4.000
  | Found free-ion valence shell :  3 s   1.000
  | Found free-ion valence shell :  3 p   3.000
  | Found ionic basis function :  3 d , default cutoff radius.
  | Found hydrogenic basis function :  2 p   1.800
  | Found hydrogenic basis function :  4 f   7.000
  | Found ionic basis function :  3 s , default cutoff radius.
  | Found hydrogenic basis function :  4 d   6.200
  | Found hydrogenic basis function :  5 g  10.800
  Species S                   : Missing cutoff potential type.
  Defaulting to exp(1/x)/(1-x)^2 type cutoff potential.
  Species S : No 'logarithmic' tag. Using default grid for free atom:
  | Default logarithmic grid data [bohr] : 0.1000E-03 0.1000E+03 0.1012E+01
  | Will include ionic basis functions of  2.0-fold positive S                    ion.
  Species S : On-site basis accuracy parameter (for Gram-Schmidt orthonormalisation) not specified.
  Using default value basis_acc =  0.1000000E-03.
  Species S                   : Using default innermost maximum threshold i_radial=  2 for radial functions.
  Species S                   : Default cutoff onset for free atom density etc. : 0.40000000E+01 AA.
  Species S                   : Basic radial grid will be enhanced according to radial_multiplier =   2, to contain    89 grid points.
 
  Reading configuration options for species Cl                  .
  | Found nuclear charge :  17.0000
  | Found atomic mass :    35.4530000000000      amu
  | Found l_max for Hartree potential  :   6
  | Found cutoff potl. onset [A], width [A], scale factor :    4.00000    2.00000    1.00000
  | Threshold for basis-dependent cutoff potential is   0.100000E-03
  | Found data for basic radial integration grid :    45 points, outermost radius =    7.000 A
  | Found multiplier for basic radial grid :   2
  | Found angular grid specification: user-specified.
  | Specified grid contains     5 separate shells.
  | Check grid settings after all constraints further below.
  | Found free-atom valence shell :  3 s   2.000
  | Found free-atom valence shell :  3 p   5.000
  | Found free-ion valence shell :  3 s   1.000
  | Found free-ion valence shell :  3 p   4.000
  | Found ionic basis function :  3 d , default cutoff radius.
  | Found hydrogenic basis function :  2 p   1.900
  | Found hydrogenic basis function :  4 f   7.400
  | Found ionic basis function :  3 s , default cutoff radius.
  | Found hydrogenic basis function :  5 g  10.400
  | Found hydrogenic basis function :  3 d   3.300
  Species Cl                  : Missing cutoff potential type.
  Defaulting to exp(1/x)/(1-x)^2 type cutoff potential.
  Species Cl: No 'logarithmic' tag. Using default grid for free atom:
  | Default logarithmic grid data [bohr] : 0.1000E-03 0.1000E+03 0.1012E+01
  | Will include ionic basis functions of  2.0-fold positive Cl                   ion.
  Species Cl: On-site basis accuracy parameter (for Gram-Schmidt orthonormalisation) not specified.
  Using default value basis_acc =  0.1000000E-03.
  Species Cl                  : Using default innermost maximum threshold i_radial=  2 for radial functions.
  Species Cl                  : Default cutoff onset for free atom density etc. : 0.40000000E+01 AA.
  Species Cl                  : Basic radial grid will be enhanced according to radial_multiplier =   2, to contain    91 grid points.
  | MBD: Using the same k-grid sampling as DFT
 
  Finished reading input file 'control.in'. Consistency checks are next.
 
  MPI_IN_PLACE appears to work with this MPI implementation.
  | Keeping use_mpi_in_place .true. (see manual).
  Target number of points in a grid batch is not set. Defaulting to  100
  Method for grid partitioning is not set. Defaulting to parallel hash+maxmin partitioning.
  Batch size limit is not set. Defaulting to    200
  By default, will store active basis functions for each batch.
  If in need of memory, prune_basis_once .false. can be used to disable this option.
  communication_type for Hartree potential was not specified.
  Defaulting to calc_hartree .
  Defaulting to Pulay charge density mixer.
  Pulay mixer: Number of relevant iterations not set.
  Defaulting to    8 iterations.
  Pulay mixer: Number of initial linear mixing iterations not set.
  Defaulting to    0 iterations.
  Work space size for distributed Hartree potential not set.
  Defaulting to   0.200000E+03 MB.
  Mixing parameter for charge density mixing has not been set.
  Using default: charge_mix_param =     0.0500.
  The mixing parameter will be adjusted in iteration number     2 of the first full s.c.f. cycle only.
  Algorithm-dependent basis array size parameters:
  | n_max_pulay                         :        8
  Maximum number of self-consistency iterations not provided.
  Presetting  1000 iterations.
  Presetting      1001 iterations before the initial mixing cycle
  is restarted anyway using the sc_init_iter criterion / keyword.
  Presetting a factor      1.000 between actual scf density residual
  and density convergence criterion sc_accuracy_rho below which sc_init_iter
  takes no effect.
  Geometry relaxation not requested: no relaxation will be performed.
  Handling of forces: Unphysical translation and rotation will be removed from forces.
  No accuracy limit for integral partition fn. given. Defaulting to  0.1000E-14.
  No threshold value for u(r) in integrations given. Defaulting to  0.1000E-05.
  No occupation type (smearing scheme) given. Defaulting to Gaussian broadening, width =  0.1000E-01 eV.
  The width will be adjusted in iteration number     2 of the first full s.c.f. cycle only.
  S.C.F. convergence parameters will be adjusted in iteration number     2 of the first full s.c.f. cycle only.
  No accuracy for occupation numbers given. Defaulting to  0.1000E-12.
  No threshold value for occupation numbers given. Defaulting to  0.0000E+00.
  No accuracy for fermi level given. Defaulting to  0.1000E-19.
  Maximum # of iterations to find E_F not set. Defaulting to  200.
  Preferred method for the eigenvalue solver ('KS_method') not specified in 'control.in'.
  Defaulting to serial version, 'lapack_fast'.
  Will not use alltoall communication since running on < 1024 CPUs.
  Threshold for basis singularities not set.
  Default threshold for basis singularities:  0.1000E-04
  partition_type (choice of integration weights) for integrals was not specified.
  | Using a version of the partition function of Stratmann and coworkers ('stratmann_smoother').
  | At each grid point, the set of atoms used to build the partition table is smoothly restricted to
  | only those atoms whose free-atom density would be non-zero at that grid point.
  Partitioning for Hartree potential was not defined. Using partition_type for integrals.
  | Adjusted default value of keyword multip_moments_threshold to:       0.10000000E-11
  | This value may affect high angular momentum components of the Hartree potential in periodic systems.
  Spin handling was not defined in control.in. Defaulting to unpolarized case.
  Angular momentum expansion for Kerker preconditioner not set explicitly.
  | Using default value of   0
  No explicit requirement for turning off preconditioner.
  | By default, it will be turned off when the charge convergence reaches
  | sc_accuracy_rho  =   0.100000E-05
  | sc_accuracy_eev  =   0.100000E-02
  | sc_accuracy_etot =   0.100000E-05
  No special mixing parameter while Kerker preconditioner is on.
  Using default: charge_mix_param =     0.0500.
  No q(lm)/r^(l+1) cutoff set for long-range Hartree potential.
  | Using default value of  0.100000E-09 .
  | Verify using the multipole_threshold keyword.
  Defaulting to new monopole extrapolation.
  Density update method: automatic selection selected.
  Using density matrix based charge density update.
  Using density matrix based charge density update.
  Using packed matrix style: index .
  Defaulting to use time-reversal symmetry for k-point grid.
------------------------------------------------------------


------------------------------------------------------------
          Reading geometry description geometry.in.
------------------------------------------------------------
 * Warning! You did not set the 'relativistic' flag in input file 'control.in'.
 * Since you are not attempting to treat any elements beyond Ca(Z=20), FHI-aims
 * will default to 'relativistic none'.
 * You must ensure that this is really what you want!!
 * For example, DO NOT compute total-energy differences between results from
 * different settings of the 'relativistic' flag.
  Input structure read successfully.
  The structure contains       13 atoms,  and a total of        130.000 electrons.

  Input geometry:
  | Unit cell:
  |        7.26870274        0.00000000        0.00000000
  |        3.63435137        6.29488123        0.00000000
  |        3.63435137        2.09829374        5.93487093
  | Atomic structure:
  |       Atom                x [A]            y [A]            z [A]
  |    1: Species Li            1.98517721        1.14614260        2.83026280
  |    2: Species Li            5.28352553        3.05044489        0.13717267
  |    3: Species Li            5.28352553        1.14614260        2.83026280
  |    4: Species Li            1.98517721        3.05044489        0.13717267
  |    5: Species Li            3.63435137        0.19399145        0.13717267
  |    6: Species Li            3.63435137        4.00259603        2.83026280
  |    7: Species P             7.26870274        4.19658748        2.96743547
  |    8: Species S             5.58930771        5.16618661        3.65304559
  |    9: Species S             7.26870270        4.19658746        0.91060505
  |   10: Species S             7.26870270        2.25738916        3.65304559
  |   11: Species S             8.94809769        5.16618661        3.65304559
  |   12: Species S             3.63435137        2.09829374        1.48371773
  |   13: Species Cl            0.00000000        0.00000000        0.00000000

  Lattice parameters for 3D lattice (in Angstroms) :     7.268703    7.268703    7.268703
  Angle(s) between unit vectors (in degrees)      :    60.000000   60.000000   60.000000

  |

  | The smallest distance between any two atoms is         2.05683036 AA.
  |
  | The first atom of this pair is atom number                      7 .
  | The second atom of this pair is atom number                    11 .
  | Wigner-Seitz cell of the first atom image           0     0     0 .
  | (The Wigner-Seitz cell of the second atom is 0 0 0  by definition.)

  Symmetry information by spglib:
  | Precision set to  0.1E-04
  | Number of Operations  : 24
  | Space group           : 216
  | International         : F-43m
  | Schoenflies           : Td^2

  Quantities derived from the lattice vectors:
  | Reciprocal lattice vector 1:  0.864416 -0.499071 -0.352896
  | Reciprocal lattice vector 2: -0.000000  0.998142 -0.352896
  | Reciprocal lattice vector 3: -0.000000 -0.000000  1.058689
  | Unit cell volume                               :   0.271554E+03  A^3

  Range separation radius for Ewald summation (hartree_convergence_parameter):      3.94973798 bohr.

  Fractional coordinates:
                         L1                L2                L3
       atom_frac         0.02311300        0.02311300        0.47688700  Li
       atom_frac         0.47688700        0.47688700        0.02311300  Li
       atom_frac         0.47688700        0.02311300        0.47688700  Li
       atom_frac         0.02311300        0.47688700        0.02311300  Li
       atom_frac         0.47688700        0.02311300        0.02311300  Li
       atom_frac         0.02311300        0.47688700        0.47688700  Li
       atom_frac         0.50000000        0.50000000        0.50000000  P
       atom_frac         0.15343300        0.61552233        0.61552233  S
       atom_frac         0.61552233        0.61552233        0.15343300  S
       atom_frac         0.61552233        0.15343300        0.61552233  S
       atom_frac         0.61552233        0.61552233        0.61552233  S
       atom_frac         0.25000000        0.25000000        0.25000000  S
       atom_frac         0.00000000        0.00000000        0.00000000  Cl

  Number of empty states per atom not set in control.in - providing a guess from actual geometry.
  | Total number of empty states used during s.c.f. cycle:       30
  If you use a very high smearing, use empty_states (per atom!) in control.in to increase this value.

  Structure-dependent array size parameters: 
  | Maximum number of distinct radial functions  :       43
  | Maximum number of basis functions            :      453
  | Number of Kohn-Sham states (occupied + empty):       95
------------------------------------------------------------

------------------------------------------------------------
          Preparing all fixed parts of the calculation.
------------------------------------------------------------
  Determining machine precision:
    2.225073858507201E-308
  Setting up grids for atomic and cluster calculations.

  Creating wave function, potential, and density for free atoms.

  Species: Li

  List of occupied orbitals and eigenvalues:
    n    l              occ      energy [Ha]    energy [eV]
    1    0           2.0000        -1.901473       -51.7417
    2    0           1.0000        -0.103132        -2.8064


  Species: P

  List of occupied orbitals and eigenvalues:
    n    l              occ      energy [Ha]    energy [eV]
    1    0           2.0000       -76.356288     -2077.7603
    2    0           2.0000        -6.358286      -173.0178
    3    0           2.0000        -0.509419       -13.8620
    2    1           6.0000        -4.573976      -124.4642
    3    1           3.0000        -0.201560        -5.4847


  Species: S

  List of occupied orbitals and eigenvalues:
    n    l              occ      energy [Ha]    energy [eV]
    1    0           2.0000       -88.108280     -2397.5483
    2    0           2.0000        -7.732485      -210.4116
    3    0           2.0000        -0.629532       -17.1304
    2    1           6.0000        -5.750324      -156.4743
    3    1           4.0000        -0.257562        -7.0086


  Species: Cl

  List of occupied orbitals and eigenvalues:
    n    l              occ      energy [Ha]    energy [eV]
    1    0           2.0000      -100.710795     -2740.4802
    2    0           2.0000        -9.222997      -250.9705
    3    0           2.0000        -0.754245       -20.5241
    2    1           6.0000        -7.039872      -191.5647
    3    1           5.0000        -0.316221        -8.6048

  Creating fixed part of basis set: Ionic, confined, hydrogenic.
 
  Li                   hydrogenic:
 
  List of hydrogenic basis orbitals: 
    n    l      effective z      eigenvalue [eV]  inner max. [A]     outer max. [A]     outer radius [A]   
    2    1         1.600000        -8.7048           1.319365           1.319365           6.386418
    2    0         2.000000       -13.6052           0.203259           1.385485           6.232164
    3    2         2.600000       -10.2084           1.835332           1.835332           6.386418
    3    1         4.600000       -31.9883           0.343834           1.385485           5.381805
    2    1         1.800000       -11.0199           1.181903           1.181903           6.386418
    3    0         6.200000       -58.1113           0.062858           1.111823           4.371906
    4    2         4.700000       -18.7772           0.761113           2.401695           6.386418
    4    3         4.100000       -14.2833           2.073992           2.073992           6.386418
 
 
  P                    ion:

  List of free ionic orbitals and eigenvalues:
    n    l      energy [Ha]    energy [eV]
    1    0       -77.297133     -2103.3620
    2    0        -7.273914      -197.9333
    3    0        -1.267536       -34.4914
    2    1        -5.491316      -149.4263
    3    1        -0.913470       -24.8568


  List of ionic basis orbitals and eigenvalues:
    n    l      energy [Ha]    energy [eV]    outer radius [A]
    3    2        -0.458060       -12.4644       5.404780
    3    1        -0.913461       -24.8565       4.724723
    3    0        -1.267529       -34.4912       4.232463

 
  P                    hydrogenic:
 
  List of hydrogenic basis orbitals: 
    n    l      effective z      eigenvalue [eV]  inner max. [A]     outer max. [A]     outer radius [A]   
    4    3         6.200000       -32.6870           1.357793           1.357793           5.339109
    5    4         8.600000       -40.2502           1.534356           1.534356           5.404780
    4    2         6.200000       -32.6848           0.577014           1.820771           5.404780
 
 
  S                    ion:

  List of free ionic orbitals and eigenvalues:
    n    l      energy [Ha]    energy [eV]
    1    0       -89.127201     -2425.2745
    2    0        -8.724378      -237.4024
    3    0        -1.464668       -39.8556
    2    1        -6.744348      -183.5230
    3    1        -1.048520       -28.5317


  List of ionic basis orbitals and eigenvalues:
    n    l      energy [Ha]    energy [eV]    outer radius [A]
    3    2        -0.496514       -13.5108       5.386362
    3    0        -1.464662       -39.8555       3.967934

 
  S                    hydrogenic:
 
  List of hydrogenic basis orbitals: 
    n    l      effective z      eigenvalue [eV]  inner max. [A]     outer max. [A]     outer radius [A]   
    2    1         1.800000       -11.0118           1.168531           1.168531           5.452614
    4    3         7.000000       -41.6672           1.212182           1.212182           5.066981
    4    2         6.200000       -32.6848           0.582121           1.814567           5.386362
    5    4        10.800000       -63.4785           1.227092           1.227092           4.766538
 
 
  Cl                   ion:

  List of free ionic orbitals and eigenvalues:
    n    l      energy [Ha]    energy [eV]
    1    0      -101.807232     -2770.3157
    2    0       -10.290876      -280.0290
    3    0        -1.664625       -45.2967
    2    1        -8.110237      -220.6908
    3    1        -1.183915       -32.2160


  List of ionic basis orbitals and eigenvalues:
    n    l      energy [Ha]    energy [eV]    outer radius [A]
    3    2        -0.529392       -14.4055       5.389057
    3    0        -1.664620       -45.2966       3.780461

 
  Cl                   hydrogenic:
 
  List of hydrogenic basis orbitals: 
    n    l      effective z      eigenvalue [eV]  inner max. [A]     outer max. [A]     outer radius [A]   
    2    1         1.900000       -12.2741           1.113321           1.113321           5.389057
    4    3         7.400000       -46.5653           1.140877           1.140877           4.886961
    5    4        10.400000       -58.8635           1.273568           1.273568           4.886961
    3    2         3.300000       -16.4532           1.439178           1.439178           5.455343
 

  Adding cutoff potential to free-atom effective potential.
  Creating atomic-like basis functions for current effective potential.

  Species Li                  :

  List of atomic basis orbitals and eigenvalues:
    n    l      energy [Ha]    energy [eV]    outer radius [A]
    1    0        -1.901473       -51.7417       4.318785
    2    0        -0.103132        -2.8064       6.464971


  Species P                   :

  List of atomic basis orbitals and eigenvalues:
    n    l      energy [Ha]    energy [eV]    outer radius [A]
    1    0       -76.356288     -2077.7603       0.736837
    2    0        -6.358286      -173.0178       2.532824
    3    0        -0.509419       -13.8620       5.274236
    2    1        -4.573976      -124.4642       2.862183
    3    1        -0.201560        -5.4847       5.404780


  Species S                   :

  List of atomic basis orbitals and eigenvalues:
    n    l      energy [Ha]    energy [eV]    outer radius [A]
    1    0       -88.108280     -2397.5483       0.682391
    2    0        -7.732485      -210.4116       2.317169
    3    0        -0.629532       -17.1304       5.256262
    2    1        -5.750324      -156.4743       2.555240
    3    1        -0.257562        -7.0086       5.386362


  Species Cl                  :

  List of atomic basis orbitals and eigenvalues:
    n    l      energy [Ha]    energy [eV]    outer radius [A]
    1    0      -100.710795     -2740.4802       0.642251
    2    0        -9.222997      -250.9705       2.128190
    3    0        -0.754245       -20.5241       5.194994
    2    1        -7.039872      -191.5647       2.346844
    3    1        -0.316221        -8.6048       5.323577

  Assembling full basis from fixed parts.
  | Species Li :   atomic orbital   1 s accepted.
  | Species Li :    hydro orbital   3 s accepted.
  | Species Li :    hydro orbital   2 s accepted.
  | Species Li :   atomic orbital   2 s accepted.
  | Species Li :    hydro orbital   3 p accepted.
  | Species Li :    hydro orbital   2 p accepted.
  | Species Li :    hydro orbital   2 p accepted.
  | Species Li :    hydro orbital   3 d accepted.
  | Species Li :    hydro orbital   4 d accepted.
  | Species Li :    hydro orbital   4 f accepted.
  | Species P :   atomic orbital   1 s accepted.
  | Species P :   atomic orbital   2 s accepted.
  | Species P :    ionic orbital   3 s accepted.
  | Species P :   atomic orbital   3 s accepted.
  | Species P :   atomic orbital   2 p accepted.
  | Species P :    ionic orbital   3 p accepted.
  | Species P :   atomic orbital   3 p accepted.
  | Species P :    ionic orbital   3 d accepted.
  | Species P :    hydro orbital   4 d accepted.
  | Species P :    hydro orbital   4 f accepted.
  | Species P :    hydro orbital   5 g accepted.
  | Species S :   atomic orbital   1 s accepted.
  | Species S :   atomic orbital   2 s accepted.
  | Species S :    ionic orbital   3 s accepted.
  | Species S :   atomic orbital   3 s accepted.
  | Species S :   atomic orbital   2 p accepted.
  | Species S :   atomic orbital   3 p accepted.
  | Species S :    hydro orbital   2 p accepted.
  | Species S :    ionic orbital   3 d accepted.
  | Species S :    hydro orbital   4 d accepted.
  | Species S :    hydro orbital   4 f accepted.
  | Species S :    hydro orbital   5 g accepted.
  | Species Cl :   atomic orbital   1 s accepted.
  | Species Cl :   atomic orbital   2 s accepted.
  | Species Cl :    ionic orbital   3 s accepted.
  | Species Cl :   atomic orbital   3 s accepted.
  | Species Cl :   atomic orbital   2 p accepted.
  | Species Cl :   atomic orbital   3 p accepted.
  | Species Cl :    hydro orbital   2 p accepted.
  | Species Cl :    ionic orbital   3 d accepted.
  | Species Cl :    hydro orbital   3 d accepted.
  | Species Cl :    hydro orbital   4 f accepted.
  | Species Cl :    hydro orbital   5 g accepted.
 
  Basis size parameters after reduction:
  | Total number of radial functions:       43
  | Total number of basis functions :      453
 
  Per-task memory consumption for arrays in subroutine allocate_ext:
  |          11.258640MB.
  Testing on-site integration grid accuracy.
  |  Species  Function  <phi|h_atom|phi> (log., in eV)  <phi|h_atom|phi> (rad., in eV)
           1        1                -51.7417001117                -51.7417000312
           1        2                 33.5927188637                 33.5926505054
           1        3                 69.1469416012                 69.1473382425
           1        4                 48.8336153902                 48.8810182289 ***
           1        5                 17.1749490570                 17.1749098864
           1        6                 32.1201183828                 32.1217831653
           1        7                  6.0166019876                  6.0249480535
           1        8                  4.9175332206                  4.9194842525
           1        9                 28.8010599263                 28.8011051086
           1       10                  9.9331480983                  9.9353515081
           2       11              -2077.7602992527              -2077.7602630746
           2       12               -173.0177635265               -173.0177629291
           2       13                -13.5620523038                -13.5620521963
           2       14                  6.3015351439                  6.3015396353
           2       15               -124.4642131574               -124.4642129967
           2       16                 -4.8468074573                 -4.8468065719
           2       17                  5.8113348591                  5.8108493787
           2       18                  5.1218113540                  5.1217878152
           2       19                 22.1386653152                 22.1386624883
           2       20                 19.3047268689                 19.3047231214
           2       21                 30.3235883931                 30.3235836780
           3       22              -2397.5482725833              -2397.5482291499
           3       23               -210.4116306505               -210.4116300246
           3       24                -16.8591546483                -16.8591544436
           3       25                  7.5848976656                  7.5849001027
           3       26               -156.4742745766               -156.4742744285
           3       27                 -7.0089268331                 -7.0089287934
           3       28                  6.8790437028                  6.8789536772
           3       29                  6.0023049431                  6.0023019693
           3       30                 19.5634804122                 19.5634829634
           3       31                 24.6809503130                 24.6809503093
           3       32                 47.5107032033                 47.5107040524
           4       33              -2740.4801671239              -2740.4801157382
           4       34               -250.9705040601               -250.9705032686
           4       35                -20.2716828479                -20.2716826054
           4       36                  9.0161300765                  9.0161279813
           4       37               -191.5646602865               -191.5646600866
           4       38                 -8.6049187754                 -8.6049181478
           4       39                  7.6458046208                  7.6458222053
           4       40                  6.9765726558                  6.9765744583
           4       41                 16.6546700656                 16.6546956458
           4       42                 28.0343243807                 28.0343233726
           4       43                 45.0370063060                 45.0370052039
 * Note: Onsite integrals marked "***" above are less accurate than
 * onsite_accuracy_threshold =    0.03000 eV. Usually, this is harmless.
 * When in doubt, tighten the "radial" and/or "radial_multiplier" flags to check.

  Preparing densities etc. for the partition functions (integrals / Hartree potential).

  Preparations completed.
  max(cpu_time)          :      0.317 s.
  Wall clock time (cpu1) :      0.317 s.
------------------------------------------------------------

------------------------------------------------------------
          Begin self-consistency loop: Initialization.

          Date     :  20220223, Time     :  090104.583
------------------------------------------------------------

  Initializing index lists of integration centers etc. from given atomic structure:
  Mapping all atomic coordinates to central unit cell.

  Initializing the k-points
          Using symmetry for reducing the k-points
  | k-points reduced from:       27 to       14
  | Number of k-points                             :        14
  The eigenvectors in the calculations are COMPLEX.
  | K-points in task   0:        14
  | Number of basis functions in the Hamiltonian integrals :      8604
  | Number of basis functions in a single unit cell        :       453
  | Number of centers in hartree potential         :      1615
  | Number of centers in hartree multipole         :      1062
  | Number of centers in electron density summation:       837
  | Number of centers in basis integrals           :       861
  | Number of centers in integrals                 :       301
  | Number of centers in hamiltonian               :      1081
  | Consuming         29 KiB for k_phase.
  | Number of super-cells (origin) [n_cells]                     :         729
  | Number of super-cells (after PM_index) [n_cells]             :         136
  | Number of super-cells in hamiltonian [n_cells_in_hamiltonian]:         136
  | Size of matrix packed + index [n_hamiltonian_matrix_size] :     2281079
  Partitioning the integration grid into batches with parallel hashing+maxmin method.
  | Number of batches:     3797
  | Maximal batch size:     134
  | Minimal batch size:      63
  | Average batch size:      71.143
  | Standard deviation of batch sizes:      17.700

  Integration load balanced across     1 MPI tasks.
  Work distribution over tasks is as follows:
  Task     0 has     270130 integration points.
  Initializing partition tables, free-atom densities, potentials, etc. across the integration grid (initialize_grid_storage).
  | initialize_grid_storage: Actual outermost partition radius vs. multipole_radius_free
  | (-- VB: in principle, multipole_radius_free should be larger, hence this output)
  | Species        1: Confinement radius =              7.000000000000000 AA, multipole_radius_free =              7.042572113910259 AA.
  | Species        1: outer_partition_radius set to              7.042572113910259 AA .
  | Species        2: Confinement radius =              6.000000000000000 AA, multipole_radius_free =              6.033387558927091 AA.
  | Species        2: outer_partition_radius set to              6.033387558927091 AA .
  | Species        3: Confinement radius =              6.000000000000000 AA, multipole_radius_free =              6.012827091137924 AA.
  | Species        3: outer_partition_radius set to              6.012827091137924 AA .
  | Species        4: Confinement radius =              6.000000000000000 AA, multipole_radius_free =              6.015836048499353 AA.
  | Species        4: outer_partition_radius set to              6.015836048499353 AA .
  | Original list of interatomic distances with         861 x        861 entries is created.
  | Net number of integration points:   270130
  | of which are non-zero points    :   216143
  | Numerical average free-atom electrostatic potential    :     -9.75380768 eV
  Renormalizing the initial density to the exact electron count on the 3D integration grid.
  | Initial density: Formal number of electrons (from input files) :     130.0000000000
  | Integrated number of electrons on 3D grid     :     130.0000361288
  | Charge integration error                      :       0.0000361288
  | Normalization factor for density and gradient :       0.9999997221
  Obtaining max. number of non-zero basis functions in each batch (get_n_compute_maxes).
  | Maximal number of non-zero basis functions:     1762 in task     0
  Allocating        9.640 MB for KS_eigenvector_complex
  Integrating Hamiltonian matrix: batch-based integration.
  Time summed over all CPUs for integration: real work      260.842 s, elapsed      260.842 s
  Integrating overlap matrix.
  Time summed over all CPUs for integration: real work      205.646 s, elapsed      205.646 s
  Decreasing sparse matrix size:
   Tolerance:  9.999999824516700E-014
   Hamiltonian matrix
  | Array has  1979617 nonzero elements out of  2281079 elements
  | Sparsity factor is 0.132
   Overlap matrix
  | Array has  1842467 nonzero elements out of  2281079 elements
  | Sparsity factor is 0.192
  New size of hamiltonian matrix:     1979950

  Updating Kohn-Sham eigenvalues and eigenvectors using ELSI and the ELPA eigensolver.
  Overlap matrix is nonsingular
  | Lowest eigenvalue of overlap  :  0.41E-04
  | Highest eigenvalue of overlap :  0.13E+02
  Finished singularity check of overlap matrix
  | Time :     0.030 s
  Finished Cholesky decomposition
  | Time :     0.007 s
  Finished transformation to standard eigenproblem
  | Time :     0.012 s
  Starting LAPACK eigensolver
  Finished solving standard eigenproblem
  | Time :     0.030 s
  Finished back-transformation of eigenvectors
  | Time :     0.002 s

  Obtaining occupation numbers and chemical potential using ELSI.
  | Chemical potential (Fermi level):    -8.86400483eV
  Writing Kohn-Sham eigenvalues.
  K-point:       1 at    0.000000    0.000000    0.000000 (in units of recip. lattice)

  State    Occupation    Eigenvalue [Ha]    Eigenvalue [eV]
      1       2.00000        -100.718962        -2740.70240
      2       2.00000         -88.193699        -2399.87266
      3       2.00000         -88.156414        -2398.85807
      4       2.00000         -88.156414        -2398.85807
      5       2.00000         -88.156414        -2398.85807
      6       2.00000         -88.156414        -2398.85807
      7       2.00000         -76.392519        -2078.74621
      8       2.00000          -9.231689         -251.20703
      9       2.00000          -7.821385         -212.83070
     10       2.00000          -7.783729         -211.80604
     11       2.00000          -7.783729         -211.80604
     12       2.00000          -7.783729         -211.80604
     13       2.00000          -7.783729         -211.80604
     14       2.00000          -7.048496         -191.79934
     15       2.00000          -7.048496         -191.79934
     16       2.00000          -7.048496         -191.79934
     17       2.00000          -6.400594         -174.16902
     18       2.00000          -5.838837         -158.88283
     19       2.00000          -5.838837         -158.88283
     20       2.00000          -5.838837         -158.88283
     21       2.00000          -5.802058         -157.88203
     22       2.00000          -5.802058         -157.88203
     23       2.00000          -5.802058         -157.88203
     24       2.00000          -5.802058         -157.88203
     25       2.00000          -5.800810         -157.84807
     26       2.00000          -5.800810         -157.84807
     27       2.00000          -5.800810         -157.84807
     28       2.00000          -5.800810         -157.84807
     29       2.00000          -5.800810         -157.84807
     30       2.00000          -5.800810         -157.84807
     31       2.00000          -5.800810         -157.84807
     32       2.00000          -5.800810         -157.84807
     33       2.00000          -4.615828         -125.60306
     34       2.00000          -4.615827         -125.60306
     35       2.00000          -4.615827         -125.60305
     36       2.00000          -1.920639          -52.26325
     37       2.00000          -1.920506          -52.25963
     38       2.00000          -1.920506          -52.25963
     39       2.00000          -1.920506          -52.25962
     40       2.00000          -1.920444          -52.25794
     41       2.00000          -1.920444          -52.25793
     42       2.00000          -0.825840          -22.47226
     43       2.00000          -0.771383          -20.99041
     44       2.00000          -0.760075          -20.68270
     45       2.00000          -0.736073          -20.02957
     46       2.00000          -0.736073          -20.02957
     47       2.00000          -0.736073          -20.02957
     48       2.00000          -0.578221          -15.73420
     49       2.00000          -0.454052          -12.35538
     50       2.00000          -0.454052          -12.35538
     51       2.00000          -0.454052          -12.35538
     52       2.00000          -0.407625          -11.09203
     53       2.00000          -0.407624          -11.09202
     54       2.00000          -0.407624          -11.09202
     55       2.00000          -0.378166          -10.29042
     56       2.00000          -0.378166          -10.29041
     57       2.00000          -0.360534           -9.81064
     58       2.00000          -0.360534           -9.81064
     59       2.00000          -0.360534           -9.81064
     60       2.00000          -0.334015           -9.08902
     61       2.00000          -0.334015           -9.08902
     62       2.00000          -0.334015           -9.08902
     63       2.00000          -0.327801           -8.91993
     64       2.00000          -0.327801           -8.91993
     65       2.00000          -0.327801           -8.91992
     66       0.00000          -0.206138           -5.60930
     67       0.00000          -0.151250           -4.11571
     68       0.00000          -0.140127           -3.81305
     69       0.00000          -0.140127           -3.81304
     70       0.00000          -0.140127           -3.81304
     71       0.00000          -0.095205           -2.59066
     72       0.00000          -0.095204           -2.59063
     73       0.00000          -0.095204           -2.59063
     74       0.00000          -0.042897           -1.16728
     75       0.00000          -0.042896           -1.16726
     76       0.00000          -0.042895           -1.16724
     77       0.00000          -0.038170           -1.03867
     78       0.00000          -0.038169           -1.03864
     79       0.00000          -0.013372           -0.36387
     80       0.00000          -0.013370           -0.36382
     81       0.00000           0.029609            0.80570
     82       0.00000           0.029612            0.80578
     83       0.00000           0.029613            0.80581
     84       0.00000           0.046276            1.25923
     85       0.00000           0.065627            1.78581
     86       0.00000           0.065628            1.78583
     87       0.00000           0.065628            1.78584
     88       0.00000           0.065731            1.78863
     89       0.00000           0.065736            1.78878
     90       0.00000           0.074846            2.03665
     91       0.00000           0.074846            2.03667
     92       0.00000           0.074847            2.03669
     93       0.00000           0.088262            2.40173
     94       0.00000           0.088263            2.40177
     95       0.00000           0.088264            2.40179

  What follows are estimated values for band gap, HOMO, LUMO, etc.
  | They are estimated on a discrete k-point grid and not necessarily exact.
  | For converged numbers, create a DOS and/or band structure plot on a denser k-grid.

  Highest occupied state (VBM) at     -8.91293226 eV (relative to internal zero)
  | Occupation number:      2.00000000
  | K-point:       3 at    0.000000    0.333333    0.000000 (in units of recip. lattice)

  Lowest unoccupied state (CBM) at    -5.60930071 eV (relative to internal zero)
  | Occupation number:      0.00000000
  | K-point:       1 at    0.000000    0.000000    0.000000 (in units of recip. lattice)

  ESTIMATED overall HOMO-LUMO gap:      3.30363155 eV between HOMO at k-point 3 and LUMO at k-point 1
  | This appears to be an indirect band gap.
  | Smallest direct gap :      3.31062119 eV for k_point 1 at    0.000000    0.000000    0.000000 (in units of recip. lattice)
  The gap value is above 0.2 eV. Unless you are using a very sparse k-point grid,
  this system is most likely an insulator or a semiconductor.
  Calculating total energy contributions from superposition of free atom densities.

  Total energy components:
  | Sum of eigenvalues            :       -1635.50249046 Ha      -44504.28711863 eV
  | XC energy correction          :        -190.07120596 Ha       -5172.10066789 eV
  | XC potential correction       :         245.55429776 Ha        6681.87241185 eV
  | Free-atom electrostatic energy:       -1257.31124761 Ha      -34213.17979478 eV
  | Hartree energy correction     :           0.00000000 Ha           0.00000000 eV
  | Entropy correction            :          -0.00000000 Ha          -0.00000000 eV
  | ---------------------------
  | Total energy                  :       -2837.33064628 Ha      -77207.69516945 eV
  | Total energy, T -> 0          :       -2837.33064628 Ha      -77207.69516945 eV  <-- do not rely on this value for anything but (periodic) metals
  | Electronic free energy        :       -2837.33064628 Ha      -77207.69516945 eV

  Derived energy quantities:
  | Kinetic energy                :        2832.96521281 Ha       77088.90568088 eV
  | Electrostatic energy          :       -5480.22465312 Ha     -149124.50018245 eV
  | Energy correction for multipole
  | error in Hartree potential    :           0.00000000 Ha           0.00000000 eV
  | Sum of eigenvalues per atom                           :       -3423.40670143 eV
  | Total energy (T->0) per atom                          :       -5939.05347457 eV  <-- do not rely on this value for anything but (periodic) metals
  | Electronic free energy per atom                       :       -5939.05347457 eV
  Initialize hartree_potential_storage
  Max. number of atoms included in rho_multipole:           13

  End scf initialization - timings             :  max(cpu_time)    wall_clock(cpu1)
  | Time for scf. initialization               :      157.631 s         157.633 s
  | Boundary condition initialization          :        0.478 s           0.478 s
  | Integration                                :      134.254 s         134.255 s
  | Solution of K.-S. eqns.                    :        1.292 s           1.292 s
  | Grid partitioning                          :        2.928 s           2.928 s
  | Preloading free-atom quantities on grid    :        0.014 s           0.014 s
  | Free-atom superposition energy             :        2.068 s           2.068 s
  | Total energy evaluation                    :        0.000 s           0.001 s

  Partial memory accounting:
  | Current value for overall tracked memory usage on task 0  :          49.240 MB
  | Peak value for overall tracked memory usage on task 0     :          85.809 MB after allocating wave
  | Largest tracked array allocation on task 0 so far         :          24.837 MB  when allocating hamiltonian_shell
  Note:  These values currently only include a subset of arrays which are explicitly tracked.
  The "true" memory usage will be greater.
------------------------------------------------------------

------------------------------------------------------------
          Begin self-consistency iteration #    1

  Date     :  20220223, Time     :  090342.216
------------------------------------------------------------
  Evaluating new KS density using the density matrix
  Evaluating density matrix
  Time summed over all CPUs for getting density from density matrix: real work      445.544 s, elapsed      445.544 s
  Integration grid: deviation in total charge (<rho> - N_e) =  -8.810730E-13
  Pulay mixing of updated and previous charge densities.

  Evaluating partitioned Hartree potential by multipole expansion.
  | Analytical far-field extrapolation by fixed multipoles:
  | Hartree multipole sum: apparent total charge =   0.130997E-02
  Summing up the Hartree potential.
  | Estimated reciprocal-space cutoff momentum G_max:         2.46194465 bohr^-1 .
  | Reciprocal lattice points for long-range Hartree potential:     458
  Time summed over all CPUs for potential: real work       61.181 s, elapsed       61.181 s
  | RMS charge density error from multipole expansion :   0.452396E-03
  | Average real-space part of the electrostatic potential :      0.01713695 eV

  Integrating Hamiltonian matrix: batch-based integration.
  Time summed over all CPUs for integration: real work      260.828 s, elapsed      260.828 s

  Updating Kohn-Sham eigenvalues and eigenvectors using ELSI and the ELPA eigensolver.
  Finished Cholesky decomposition
  | Time :     0.008 s
  Finished transformation to standard eigenproblem
  | Time :     0.014 s
  Starting LAPACK eigensolver
  Finished solving standard eigenproblem
  | Time :     0.031 s
  Finished back-transformation of eigenvectors
  | Time :     0.002 s

  Obtaining occupation numbers and chemical potential using ELSI.
  | Chemical potential (Fermi level):    -8.82795901eV
  Writing Kohn-Sham eigenvalues.
  K-point:       1 at    0.000000    0.000000    0.000000 (in units of recip. lattice)

  State    Occupation    Eigenvalue [Ha]    Eigenvalue [eV]
      1       2.00000        -100.711854        -2740.50899
      2       2.00000         -88.179835        -2399.49540
      3       2.00000         -88.151660        -2398.72871
      4       2.00000         -88.151660        -2398.72871
      5       2.00000         -88.151660        -2398.72870
      6       2.00000         -88.151660        -2398.72870
      7       2.00000         -76.402786        -2079.02559
      8       2.00000          -9.225988         -251.05191
      9       2.00000          -7.810038         -212.52196
     10       2.00000          -7.780178         -211.70942
     11       2.00000          -7.780178         -211.70942
     12       2.00000          -7.780178         -211.70942
     13       2.00000          -7.780178         -211.70942
     14       2.00000          -7.042658         -191.64046
     15       2.00000          -7.042658         -191.64046
     16       2.00000          -7.042658         -191.64046
     17       2.00000          -6.408682         -174.38910
     18       2.00000          -5.827261         -158.56785
     19       2.00000          -5.827261         -158.56785
     20       2.00000          -5.827261         -158.56785
     21       2.00000          -5.798623         -157.78856
     22       2.00000          -5.798623         -157.78855
     23       2.00000          -5.798623         -157.78855
     24       2.00000          -5.798623         -157.78855
     25       2.00000          -5.797032         -157.74527
     26       2.00000          -5.797032         -157.74527
     27       2.00000          -5.797032         -157.74527
     28       2.00000          -5.797032         -157.74527
     29       2.00000          -5.797032         -157.74527
     30       2.00000          -5.797032         -157.74527
     31       2.00000          -5.797032         -157.74527
     32       2.00000          -5.797032         -157.74526
     33       2.00000          -4.624078         -125.82756
     34       2.00000          -4.624078         -125.82756
     35       2.00000          -4.624078         -125.82756
     36       2.00000          -1.920590          -52.26190
     37       2.00000          -1.920458          -52.25831
     38       2.00000          -1.920458          -52.25831
     39       2.00000          -1.920457          -52.25829
     40       2.00000          -1.920396          -52.25662
     41       2.00000          -1.920395          -52.25662
     42       2.00000          -0.826593          -22.49273
     43       2.00000          -0.768295          -20.90636
     44       2.00000          -0.753569          -20.50566
     45       2.00000          -0.735132          -20.00396
     46       2.00000          -0.735132          -20.00396
     47       2.00000          -0.735132          -20.00396
     48       2.00000          -0.578546          -15.74303
     49       2.00000          -0.454260          -12.36104
     50       2.00000          -0.454260          -12.36104
     51       2.00000          -0.454260          -12.36104
     52       2.00000          -0.402739          -10.95907
     53       2.00000          -0.402738          -10.95906
     54       2.00000          -0.402738          -10.95906
     55       2.00000          -0.377249          -10.26547
     56       2.00000          -0.377249          -10.26546
     57       2.00000          -0.359303           -9.77712
     58       2.00000          -0.359303           -9.77712
     59       2.00000          -0.359303           -9.77712
     60       2.00000          -0.331819           -9.02926
     61       2.00000          -0.331819           -9.02926
     62       2.00000          -0.331819           -9.02926
     63       2.00000          -0.326480           -8.88396
     64       2.00000          -0.326480           -8.88396
     65       2.00000          -0.326479           -8.88396
     66       0.00000          -0.206713           -5.62495
     67       0.00000          -0.150168           -4.08627
     68       0.00000          -0.140887           -3.83374
     69       0.00000          -0.140887           -3.83373
     70       0.00000          -0.140887           -3.83373
     71       0.00000          -0.093756           -2.55122
     72       0.00000          -0.093754           -2.55119
     73       0.00000          -0.093754           -2.55119
     74       0.00000          -0.041831           -1.13828
     75       0.00000          -0.041830           -1.13825
     76       0.00000          -0.041830           -1.13824
     77       0.00000          -0.037773           -1.02787
     78       0.00000          -0.037772           -1.02784
     79       0.00000          -0.011828           -0.32187
     80       0.00000          -0.011827           -0.32182
     81       0.00000           0.030248            0.82310
     82       0.00000           0.030252            0.82319
     83       0.00000           0.030253            0.82321
     84       0.00000           0.047482            1.29206
     85       0.00000           0.066342            1.80525
     86       0.00000           0.066343            1.80527
     87       0.00000           0.066343            1.80528
     88       0.00000           0.067023            1.82379
     89       0.00000           0.067029            1.82394
     90       0.00000           0.075533            2.05536
     91       0.00000           0.075534            2.05538
     92       0.00000           0.075534            2.05539
     93       0.00000           0.089604            2.43824
     94       0.00000           0.089605            2.43828
     95       0.00000           0.089606            2.43830

  What follows are estimated values for band gap, HOMO, LUMO, etc.
  | They are estimated on a discrete k-point grid and not necessarily exact.
  | For converged numbers, create a DOS and/or band structure plot on a denser k-grid.

  Highest occupied state (VBM) at     -8.87690473 eV (relative to internal zero)
  | Occupation number:      2.00000000
  | K-point:       3 at    0.000000    0.333333    0.000000 (in units of recip. lattice)

  Lowest unoccupied state (CBM) at    -5.62494569 eV (relative to internal zero)
  | Occupation number:      0.00000000
  | K-point:       1 at    0.000000    0.000000    0.000000 (in units of recip. lattice)

  ESTIMATED overall HOMO-LUMO gap:      3.25195904 eV between HOMO at k-point 3 and LUMO at k-point 1
  | This appears to be an indirect band gap.
  | Smallest direct gap :      3.25901083 eV for k_point 1 at    0.000000    0.000000    0.000000 (in units of recip. lattice)
  The gap value is above 0.2 eV. Unless you are using a very sparse k-point grid,
  this system is most likely an insulator or a semiconductor.

  Total energy components:
  | Sum of eigenvalues            :       -1635.17076386 Ha      -44495.26037868 eV
  | XC energy correction          :        -190.10120992 Ha       -5172.91711715 eV
  | XC potential correction       :         245.59271259 Ha        6682.91773264 eV
  | Free-atom electrostatic energy:       -1257.31124761 Ha      -34213.17979478 eV
  | Hartree energy correction     :          -0.32840007 Ha          -8.93622067 eV
  | Entropy correction            :          -0.00000000 Ha          -0.00000000 eV
  | ---------------------------
  | Total energy                  :       -2837.31890888 Ha      -77207.37577863 eV
  | Total energy, T -> 0          :       -2837.31890888 Ha      -77207.37577863 eV  <-- do not rely on this value for anything but (periodic) metals
  | Electronic free energy        :       -2837.31890888 Ha      -77207.37577863 eV

  Derived energy quantities:
  | Kinetic energy                :        2833.14649979 Ha       77093.83875048 eV
  | Electrostatic energy          :       -5480.36419874 Ha     -149128.29741197 eV
  | Energy correction for multipole
  | error in Hartree potential    :          -0.00080044 Ha          -0.02178116 eV
  | Sum of eigenvalues per atom                           :       -3422.71233682 eV
  | Total energy (T->0) per atom                          :       -5939.02890605 eV  <-- do not rely on this value for anything but (periodic) metals
  | Electronic free energy per atom                       :       -5939.02890605 eV

  Self-consistency convergence accuracy:
  | Change of charge density      :  0.2831E+00
  | Change of sum of eigenvalues  :  0.9027E+01 eV
  | Change of total energy        :  0.3194E+00 eV

  End self-consistency iteration #     1       :  max(cpu_time)    wall_clock(cpu1)
  | Time for this iteration                    :      233.035 s         233.037 s
  | Charge density update                      :      128.304 s         128.306 s
  | Density mixing & preconditioning           :       11.070 s          11.070 s
  | Hartree multipole update                   :        0.022 s           0.022 s
  | Hartree multipole summation                :       17.674 s          17.675 s
  | Integration                                :       75.058 s          75.058 s
  | Solution of K.-S. eqns.                    :        0.906 s           0.906 s
  | Total energy evaluation                    :        0.000 s           0.000 s

  Partial memory accounting:
  | Current value for overall tracked memory usage on task 0  :          49.240 MB
  | Peak value for overall tracked memory usage on task 0     :          85.809 MB after allocating wave
  | Largest tracked array allocation on task 0 so far         :          24.837 MB  when allocating hamiltonian_shell
  Note:  These values currently only include a subset of arrays which are explicitly tracked.
  The "true" memory usage will be greater.
------------------------------------------------------------

------------------------------------------------------------
          Begin self-consistency iteration #    2

  Date     :  20220223, Time     :  090735.255
------------------------------------------------------------
  Evaluating new KS density using the density matrix
  Evaluating density matrix
  Time summed over all CPUs for getting density from density matrix: real work      448.627 s, elapsed      448.627 s
  Integration grid: deviation in total charge (<rho> - N_e) =  -1.278977E-12
  Pulay mixing of updated and previous charge densities.

  Evaluating partitioned Hartree potential by multipole expansion.
  | Analytical far-field extrapolation by fixed multipoles:
  | Hartree multipole sum: apparent total charge =   0.164017E-01
  Summing up the Hartree potential.
  Time summed over all CPUs for potential: real work       70.411 s, elapsed       70.411 s
  | RMS charge density error from multipole expansion :   0.582898E-02
  | Average real-space part of the electrostatic potential :      0.21736989 eV

  Integrating Hamiltonian matrix: batch-based integration.
  Time summed over all CPUs for integration: real work      261.308 s, elapsed      261.308 s

[...]
  |   Free atom volume        :     76.98066615
  |   Hirshfeld volume        :     76.03112449
  |   Hirshfeld dipole vector :      0.00000000       0.00001317       0.00001130
  |   Hirshfeld dipole moment :      0.00001736
  |   Hirshfeld second moments:     -0.08308545      -0.00000000      -0.00000000
  |                                 -0.00000000      -0.08308136      -0.00005170
  |                                 -0.00000000      -0.00005170      -0.08307123
  ----------------------------------------------------------------------
  | Atom    13: Cl
  |   Hirshfeld charge        :     -0.26504329
  |   Free atom volume        :     66.13469196
  |   Hirshfeld volume        :     64.27752809
  |   Hirshfeld dipole vector :      0.00000000      -0.00000032       0.00002697
  |   Hirshfeld dipole moment :      0.00002698
  |   Hirshfeld second moments:     -0.02824903       0.00000000       0.00000000
  |                                  0.00000000      -0.02820313      -0.00000538
  |                                  0.00000000      -0.00000538      -0.02821366
  ----------------------------------------------------------------------

  | Many-Body Dispersion (MBD@rsSCS) energy
  | Total dynamic anisotropic polarizability, \alpha_{ij}(iu), (a.u.)
  | -------------------------------------------------------------------
  |      u            xx         yy         zz         yz         xz         xy
  |   0.000000    615.803    615.808    615.806      0.003      0.000      0.000
   Negative alpha! Aborting this iteration
  | --------------------------------------------------------------

  Total energy components:
  | Sum of eigenvalues            :       -1631.91892919 Ha      -44406.77345506 eV
  | XC energy correction          :        -190.47957324 Ha       -5183.21290677 eV
  | XC potential correction       :         246.07442993 Ha        6696.02592838 eV
  | Free-atom electrostatic energy:       -1257.31124761 Ha      -34213.17979478 eV
  | Hartree energy correction     :          -3.61942230 Ha         -98.48949175 eV
  | Entropy correction            :          -0.00000000 Ha          -0.00000000 eV
  | ---------------------------
  | Total energy                  :       -2837.25474240 Ha      -77205.62971999 eV
  | Total energy, T -> 0          :       -2837.25474240 Ha      -77205.62971999 eV  <-- do not rely on this value for anything but (periodic) metals
  | Electronic free energy        :       -2837.25474240 Ha      -77205.62971999 eV

  Derived energy quantities:
  | Kinetic energy                :        2833.20387760 Ha       77095.40008018 eV
  | Electrostatic energy          :       -5479.97904676 Ha     -149117.81689340 eV
  | Energy correction for multipole
  | error in Hartree potential    :          -0.01787730 Ha          -0.48646603 eV
  | Sum of eigenvalues per atom                           :       -3415.90565039 eV
  | Total energy (T->0) per atom                          :       -5938.89459385 eV  <-- do not rely on this value for anything but (periodic) metals
  | Electronic free energy per atom                       :       -5938.89459385 eV

  atomic forces [eV/Ang]:
  -----------------------
  atom #    1
   Hellmann-Feynman              : -0.487425E-01 -0.284535E-01  0.398962E-01
   Ionic forces                  :  0.000000E+00  0.000000E+00  0.000000E+00
   Multipole                     : -0.566564E-02 -0.314129E-02  0.454788E-02
   Pulay + GGA                   :  0.694003E-01  0.402210E-01 -0.566418E-01
   Van der Waals                 :  0.000000E+00  0.000000E+00  0.000000E+00
   ----------------------------------------------------------------
   Total forces(   1)            :  0.149922E-01  0.862624E-02 -0.121978E-01
  atom #    2
   Hellmann-Feynman              :  0.482713E-01  0.283149E-01 -0.398869E-01
   Ionic forces                  :  0.000000E+00  0.000000E+00  0.000000E+00
   Multipole                     :  0.561208E-02  0.299198E-02 -0.456274E-02
   Pulay + GGA                   : -0.688276E-01 -0.399422E-01  0.566464E-01
   Van der Waals                 :  0.000000E+00  0.000000E+00  0.000000E+00
   ----------------------------------------------------------------
   Total forces(   2)            : -0.149442E-01 -0.863528E-02  0.121968E-01
  atom #    3
   Hellmann-Feynman              :  0.487424E-01 -0.284535E-01  0.398961E-01
   Ionic forces                  :  0.000000E+00  0.000000E+00  0.000000E+00
   Multipole                     :  0.566564E-02 -0.314129E-02  0.454788E-02
   Pulay + GGA                   : -0.694003E-01  0.402210E-01 -0.566418E-01
   Van der Waals                 :  0.000000E+00  0.000000E+00  0.000000E+00
   ----------------------------------------------------------------
   Total forces(   3)            : -0.149923E-01  0.862626E-02 -0.121979E-01
  atom #    4
   Hellmann-Feynman              : -0.482714E-01  0.283150E-01 -0.398869E-01
   Ionic forces                  :  0.000000E+00  0.000000E+00  0.000000E+00
   Multipole                     : -0.561208E-02  0.299198E-02 -0.456274E-02
   Pulay + GGA                   :  0.688276E-01 -0.399422E-01  0.566463E-01
   Van der Waals                 :  0.000000E+00  0.000000E+00  0.000000E+00
   ----------------------------------------------------------------
   Total forces(   4)            :  0.149441E-01 -0.863521E-02  0.121967E-01
  atom #    5
   Hellmann-Feynman              :  0.575714E-08 -0.567779E-01 -0.396644E-01
   Ionic forces                  :  0.000000E+00  0.000000E+00  0.000000E+00
   Multipole                     : -0.210773E-08 -0.642776E-02 -0.452086E-02
   Pulay + GGA                   : -0.419089E-08  0.804779E-01  0.563850E-01
   Van der Waals                 :  0.000000E+00  0.000000E+00  0.000000E+00
   ----------------------------------------------------------------
   Total forces(   5)            : -0.541477E-09  0.172722E-01  0.121998E-01
  atom #    6
   Hellmann-Feynman              : -0.681301E-07  0.565267E-01  0.403516E-01
   Ionic forces                  :  0.000000E+00  0.000000E+00  0.000000E+00
   Multipole                     :  0.621339E-08  0.649448E-02  0.438981E-02
   Pulay + GGA                   :  0.225058E-07 -0.802251E-01 -0.570256E-01
   Van der Waals                 :  0.000000E+00  0.000000E+00  0.000000E+00
   ----------------------------------------------------------------
   Total forces(   6)            : -0.394110E-07 -0.172039E-01 -0.122842E-01
  atom #    7
   Hellmann-Feynman              : -0.846607E-06 -0.164463E-02 -0.321776E-03
   Ionic forces                  :  0.000000E+00  0.000000E+00  0.000000E+00
   Multipole                     : -0.571099E-07  0.113389E-02  0.285252E-03
   Pulay + GGA                   :  0.619190E-07  0.524298E-03 -0.577951E-04
   Van der Waals                 :  0.000000E+00  0.000000E+00  0.000000E+00
   ----------------------------------------------------------------
   Total forces(   7)            : -0.841798E-06  0.135664E-04 -0.943183E-04
  atom #    8
   Hellmann-Feynman              : -0.122851E+02  0.709289E+01  0.501383E+01
   Ionic forces                  :  0.000000E+00  0.000000E+00  0.000000E+00
   Multipole                     :  0.276287E+00 -0.158773E+00 -0.112648E+00
   Pulay + GGA                   :  0.119328E+02 -0.689013E+01 -0.487015E+01
   Van der Waals                 :  0.000000E+00  0.000000E+00  0.000000E+00
   ----------------------------------------------------------------
   Total forces(   8)            : -0.759798E-01  0.439850E-01  0.310294E-01
  atom #    9
   Hellmann-Feynman              : -0.155354E-06 -0.174122E-02 -0.150499E+02
   Ionic forces                  :  0.000000E+00  0.000000E+00  0.000000E+00
   Multipole                     : -0.850780E-08  0.127228E-02  0.339245E+00
   Pulay + GGA                   :  0.352614E-06  0.558168E-03  0.146174E+02
   Van der Waals                 :  0.000000E+00  0.000000E+00  0.000000E+00
   ----------------------------------------------------------------
   Total forces(   9)            :  0.188752E-06  0.892299E-04 -0.932119E-01
  atom #   10
   Hellmann-Feynman              : -0.146921E-06 -0.141917E+02  0.501804E+01
   Ionic forces                  :  0.000000E+00  0.000000E+00  0.000000E+00
   Multipole                     : -0.876096E-08  0.321310E+00 -0.111876E+00
   Pulay + GGA                   :  0.344617E-06  0.137832E+02 -0.487518E+01
   Van der Waals                 :  0.000000E+00  0.000000E+00  0.000000E+00
   ----------------------------------------------------------------
   Total forces(  10)            :  0.188935E-06 -0.872561E-01  0.309793E-01
  atom #   11
   Hellmann-Feynman              :  0.122851E+02  0.709289E+01  0.501383E+01
   Ionic forces                  :  0.000000E+00  0.000000E+00  0.000000E+00
   Multipole                     : -0.276287E+00 -0.158773E+00 -0.112648E+00
   Pulay + GGA                   : -0.119328E+02 -0.689013E+01 -0.487015E+01
   Van der Waals                 :  0.000000E+00  0.000000E+00  0.000000E+00
   ----------------------------------------------------------------
   Total forces(  11)            :  0.759805E-01  0.439852E-01  0.310295E-01
  atom #   12
   Hellmann-Feynman              :  0.522061E-05 -0.211470E-03  0.260807E-02
   Ionic forces                  :  0.000000E+00  0.000000E+00  0.000000E+00
   Multipole                     :  0.585112E-08  0.383676E-03 -0.186002E-02
   Pulay + GGA                   :  0.284879E-04 -0.984398E-04 -0.788212E-03
   Van der Waals                 :  0.000000E+00  0.000000E+00  0.000000E+00
   ----------------------------------------------------------------
   Total forces(  12)            :  0.337144E-04  0.737664E-04 -0.401608E-04
  atom #   13
   Hellmann-Feynman              : -0.249609E-06  0.118172E-03 -0.166495E-02
   Ionic forces                  :  0.000000E+00  0.000000E+00  0.000000E+00
   Multipole                     :  0.110547E-09  0.721262E-05 -0.111017E-04
   Pulay + GGA                   :  0.199005E-06 -0.194178E-03  0.160495E-02
   Van der Waals                 :  0.000000E+00  0.000000E+00  0.000000E+00
   ----------------------------------------------------------------
   Total forces(  13)            : -0.504935E-07 -0.687933E-04 -0.711079E-04

  Timings for VdW correction (Tkatchenko-Scheffler 2009 or later):
  | CPU time:       69.126 s, Wall clock time:       69.171 s.
  Removing unitary transformations (pure translations, rotations) from forces on atoms.
  Atomic forces before filtering:
  | Net force on center of mass :   0.336650E-04  0.872254E-03 -0.465907E-03 eV/A
  Atomic forces after filtering:
  | Net force on center of mass :  -0.113780E-16  0.583653E-17 -0.153753E-16 eV/A

  Energy and forces in a compact form:
  | Total energy uncorrected      :         -0.772056297199875E+05 eV
  | Total energy corrected        :         -0.772056297199875E+05 eV  <-- do not rely on this value for anything but (periodic) metals
  | Electronic free energy        :         -0.772056297199875E+05 eV
  Total atomic forces (unitary forces cleaned) [eV/Ang]:
  |   1          0.149895929100277E-01          0.855914428410788E-02         -0.121619606696764E-01
  |   2         -0.149468183620829E-01         -0.870237845739992E-02          0.122326072768268E-01
  |   3         -0.149948870876865E-01          0.855916616852757E-02         -0.121620400930406E-01
  |   4          0.149415214128398E-01         -0.870231069917546E-02          0.122325603967175E-01
  |   5         -0.259015343064468E-05          0.172051350204941E-01          0.122356201773957E-01
  |   6         -0.262902293101522E-05         -0.172710058798471E-01         -0.122484061029482E-01
  |   7         -0.343140969691421E-05         -0.535300522611212E-04         -0.584793187692047E-04
  |   8         -0.759823879760751E-01          0.439179388564986E-01          0.310652186496662E-01
  |   9         -0.240085951926109E-05          0.221334076175659E-04         -0.931760128536732E-01
  |  10         -0.240067696448469E-05         -0.873232162389056E-01          0.310151300544384E-01
  |  11          0.759779465667896E-01          0.439181433628242E-01          0.310653531484802E-01
  |  12          0.311247641671704E-04          0.666992583307819E-05         -0.432175507245053E-05
  |  13         -0.264010543737559E-05         -0.135889698313758E-03         -0.352689103448597E-04

  ------------------------------------ 
  Start decomposition of the XC Energy 
  ------------------------------------ 
  X and C from original XC functional choice 
  Hartree-Fock Energy :          0.000000000 Ha              0.000000000 eV
  X Energy            :       -185.634008744 Ha          -5051.358388223 eV
  C Energy            :         -4.845564493 Ha           -131.854518548 eV
  Total XC Energy     :       -190.479573238 Ha          -5183.212906770 eV
  ------------------------------------ 
  LDA X and C from self-consistent density 
  X Energy LDA        :       -171.702021880 Ha          -4672.249736798 eV
  C Energy LDA        :         -9.784850228 Ha           -266.259321840 eV
  ------------------------------------ 
  End decomposition of the XC Energy 
  ------------------------------------ 

------------------------------------------------------------

------------------------------------------------------------------------------
  Final output of selected total energy values:

  The following output summarizes some interesting total energy values
  at the end of a run (AFTER all relaxation, molecular dynamics, etc.).

  | Total energy of the DFT / Hartree-Fock s.c.f. calculation      :         -77205.629719987 eV
  | Final zero-broadening corrected energy (caution - metals only) :         -77205.629719987 eV
  | For reference only, the value of 1 Hartree used in FHI-aims is :             27.211384500 eV

  Before relying on these values, please be sure to understand exactly which
  total energy value is referred to by a given number. Different objects may
  all carry the same name 'total energy'. Definitions:

  Total energy of the DFT / Hartree-Fock s.c.f. calculation:
  | Note that this energy does not include ANY quantities calculated after the
  | s.c.f. cycle, in particular not ANY RPA, MP2, etc. many-body perturbation terms.

  Final zero-broadening corrected energy:
  | For metallic systems only, a broadening of the occupation numbers at the Fermi
  | level can be extrapolated back to zero broadening by an electron-gas inspired
  | formula. For all systems that are not real metals, this value can be
  | meaningless and should be avoided.

------------------------------------------------------------------------------
  Methods described in the following list of references were used in this FHI-aims run.
  If you publish the results, please make sure to cite these reference if they apply.
  FHI-aims is an academic code, and for our developers (often, Ph.D. students
  and postdocs), scientific credit in the community is essential.
  Thank you for helping us!

  For any use of FHI-aims, please cite:

    Volker Blum, Ralf Gehrke, Felix Hanke, Paula Havu, Ville Havu,
    Xinguo Ren, Karsten Reuter, and Matthias Scheffler
    'Ab initio molecular simulations with numeric atom-centered orbitals'
    Computer Physics Communications 180, 2175-2196 (2009)
    http://dx.doi.org/10.1016/j.cpc.2009.06.022


  The provided symmetry information was generated with SPGlib:

    Atsushi Togo, Yusuke Seto, Dimitar Pashov
    SPGlib 1.7.3 obtained from http://spglib.sourceforge.net
    Copyright (C) 2008 Atsushi Togo


  The scalable eigensolver library ELPA was used in your run.
  ELPA is essential especially for large systems on hundreds or thousands of CPUs.
  For ELPA, please cite:

    Andreas Marek, Volker Blum, Rainer Johanni, Ville Havu, Bruno Lang,
    Thomas Auckenthaler, Alexander Heinecke, Hans-Joachim Bungartz, and Hermann Lederer,
    'The ELPA Library - Scalable Parallel Eigenvalue Solutions
    for Electronic Structure Theory and Computational Science'
    The Journal of Physics: Condensed Matter 26, 213201 (2014).
    http://dx.doi.org/10.1088/0953-8984/26/21/213201


  The ELSI infrastructure was used in your run to solve the Kohn-Sham electronic structure.
  Please check out http://elsi-interchange.org to learn more.
  If scalability is important for your project, please acknowledge ELSI by citing:

    V. W-z. Yu, F. Corsetti, A. Garcia, W. P. Huhn, M. Jacquelin, W. Jia,
    B. Lange, L. Lin, J. Lu, W. Mi, A. Seifitokaldani, A. Vazquez-Mayagoitia,
    C. Yang, H. Yang, and V. Blum
    'ELSI: A unified software interface for Kohn-Sham electronic structure solvers'
    Computer Physics Communications 222, 267-285 (2018).
    http://dx.doi.org/10.1016/j.cpc.2017.09.007


  For the real-space grid partitioning and parallelization used in this calculation, please cite:

    Ville Havu, Volker Blum, Paula Havu, and Matthias Scheffler,
    'Efficient O(N) integration for all-electron electronic structure calculation'
    'using numerically tabulated basis functions'
    Journal of Computational Physics 228, 8367-8379 (2009).
    http://dx.doi.org/10.1016/j.jcp.2009.08.008

  Of course, there are many other important community references, e.g., those cited in the
  above references. Our list is limited to references that describe implementations in the
  FHI-aims code. The reason is purely practical (length of this list) - please credit others as well.

------------------------------------------------------------
          Leaving FHI-aims.
          Date     :  20220223, Time     :  104318.102

          Computational steps:
          | Number of self-consistency cycles          :           20
          | Number of SCF (re)initializations          :            1

          Detailed time accounting                     :  max(cpu_time)    wall_clock(cpu1)
          | Total time                                 :     6110.310 s        6133.914 s
          | Preparation time                           :        0.317 s           0.317 s
          | Boundary condition initalization           :        0.478 s           0.478 s
          | Grid partitioning                          :        2.928 s           2.928 s
          | Preloading free-atom quantities on grid    :        0.014 s           0.014 s
          | Free-atom superposition energy             :        2.068 s           2.068 s
          | Total time for integrations                :     1637.025 s        1637.630 s
          | Total time for solution of K.-S. equations :       19.377 s          19.383 s
          | Total time for density & force components  :     3611.900 s        3634.663 s
          | Total time for mixing & preconditioning    :      198.174 s         198.215 s
          | Total time for Hartree multipole update    :        0.498 s           0.496 s
          | Total time for Hartree multipole sum       :      551.564 s         551.666 s
          | Total time for total energy evaluation     :        0.003 s           0.006 s
          | Total time for vdW correction              :       69.126 s          69.171 s

          Partial memory accounting:
          | Residual value for overall tracked memory usage across tasks :           0.000 MB (should be 0.000 MB)
          | Peak values for overall tracked memory usage (after allocating wave_pulay):
          |   Minimum:      111.855 MB (on task 1)
          |   Maximum:      111.855 MB (on task 1)
          |   Average:      111.855 MB
          | Largest tracked array allocation (hamiltonian_shell):
          |   Minimum:       24.837 MB (on task 1)
          |   Maximum:       24.837 MB (on task 1)
          |   Average:       24.837 MB
          Note:  These values currently only include a subset of arrays which are explicitly tracked.
          The "true" memory usage will be greater.

          Have a nice day.
------------------------------------------------------------
