  MPI-parallelism will be employed.
------------------------------------------------------------
          Invoking FHI-aims ...
          Version 171221_1
          Compiled on 2020/11/22 at 19:48:33 on host core401.

          When using FHI-aims, please cite the following reference:

          Volker Blum, Ralf Gehrke, Felix Hanke, Paula Havu,
          Ville Havu, Xinguo Ren, Karsten Reuter, and Matthias Scheffler,
          'Ab Initio Molecular Simulations with Numeric Atom-Centered Orbitals',
          Computer Physics Communications 180, 2175-2196 (2009)

          For any questions about FHI-aims, please visit the aimsclub website
          with its forums and wiki. Contributions to both the forums and the
          wiki are warmly encouraged - they are for you, and everyone is welcome there.

------------------------------------------------------------



  Date     :  20220223, Time     :  071748.795
  Time zero on CPU 1             :   0.670260000000000E-01  s.
  Internal wall clock time zero  :           414832668.795  s.

  FHI-aims created a unique identifier for this run for later identification
  aims_uuid : 9107BE5A-6459-444F-A9AC-A99042D5A32D

  Using        1 parallel tasks.
  Task        0 on host core401 reporting.

  Performing system and environment tests:
  *** Environment variable OMP_NUM_THREADS is not set
  *** For performance reasons you might want to set it to 1
  | Maximum stacksize for task 0: unlimited
  | Current stacksize for task 0: unlimited
  | Checking for scalapack...
  | Testing pdtran()...
  | All pdtran() tests passed.

  Obtaining array dimensions for all initial allocations:
  
  -----------------------------------------------------------------------
  Parsing control.in (first pass over file, find array dimensions only).
  The contents of control.in will be repeated verbatim below
  unless switched off by setting 'verbatim_writeout .false.' .
  in the first line of control.in .
  -----------------------------------------------------------------------
  
  #===============================================================================
  # FHI-aims file: ./control.in
  # Created using the Atomic Simulation Environment (ASE)
  # Wed Mar 24 12:41:28 2021
  #===============================================================================
  xc                                 pbe
  # relax_geometry                     bfgs 1e-4
  sc_accuracy_etot                   1e-06
  sc_accuracy_eev                    0.001
  sc_accuracy_rho                    1e-06
  sc_accuracy_forces                 0.0001
  many_body_dispersion
  k_grid                             3 3 3
  
    #output band 0.0   0.0   0.0   0.5   0.5   0.0    10  Gamma M
    #output band 0.5   0.5   0.0   0.5   0.5   0.5    10  M     R
    #output band 0.5   0.5   0.5   0.0   0.5   0.0    10  R     X
  
    #output  dos              -18. 10. 200 0.1
    #output  species_proj_dos -18. 10. 200 0.1
  
  #===============================================================================
  
  ################################################################################
  #
  #  FHI-aims code project
  # Volker Blum, Fritz Haber Institute Berlin, 2009
  #
  #  Suggested "tight" defaults for Li atom (to be pasted into control.in file)
  #
  #  2016/03/22: Increased cutoff radius to 5.0 AA (Xinguo Ren, Aug 15, 2015)
  #
  ################################################################################
    species        Li
  #     global species definitions
      nucleus             3
      mass                6.941
  #
      l_hartree           6
  #
      cut_pot             5.0  2.0  1.0
      basis_dep_cutoff    1e-4
  #
      radial_base         29 7.0
      radial_multiplier   2
      angular_grids       specified
        division   0.4484  110
        division   0.5659  194
        division   0.6315  302
        division   0.6662  434
  #      division   0.8186  590
  #      division   0.9037  770
  #      division   6.2760  974
  #      outer_grid   974
        outer_grid  434
  ################################################################################
  #
  #  Definition of "minimal" basis
  #
  ################################################################################
  #     valence basis states
      valence      2  s   1.
  #     ion occupancy
      ion_occ      1  s   2.
  ################################################################################
  #
  #  Suggested additional basis functions. For production calculations,
  #  uncomment them one after another (the most important basis functions are
  #  listed first).
  #
  #  Constructed for dimers: 1.80 A, 2.25 A, 2.75 A, 3.50 A, 4.50 A
  #
  ################################################################################
  #  "First tier" - improvements: -189.23 meV to -6.35 meV
       hydro 2 p 1.6
       hydro 2 s 2
       hydro 3 d 2.6
  #  "Second tier" - improvements: -4.69 meV to -0.41 meV
       hydro 3 p 4.6
       hydro 2 p 1.8
       hydro 3 s 6.2
       hydro 4 d 4.7
       hydro 4 f 4.1
  #  "Third tier" - improvements: -0.20 meV to -0.15 meV
  #     hydro 4 d 0.95
  #     hydro 3 p 6.2
  #     hydro 3 s 1.7
  #  Further functions, listed for completeness
  #     VB: The following functions are only listed for completeness; test very
  #         carefully before any kind of production use. From the point of view
  #         of the basis construction, their main role is to fill up space,
  #         and they are solely determined by the location of the cutoff potential.
  #     hydro 3 p 0.1  # -0.15 meV
  #     hydro 4 d 5    # -0.12 meV
  #     hydro 4 f 0.1  # -0.14 meV
  #     hydro 5 g 0.1  # -0.06 meV
  
  
  ################################################################################
  #
  # For methods that use the localized form of the "resolution of identity" for
  # the two-electron Coulomb operator (RI_method LVL), particularly Hartree-Fock and
  # hybrid density functional calculations, the highest accuracy can be obtained by
  # uncommenting the line beginning with "for_aux"  below, thus adding an extra g radial
  # function to the construction of the product basis set for the expansion.
  # See Ref. New J. Phys. 17, 093020 (2015) for more information, particularly Figs. 1 and 6.
  #
  ################################################################################
  #
  # for_aux hydro 5 g 6.0
  ################################################################################
  #
  #  FHI-aims code project
  # Volker Blum, Fritz Haber Institute Berlin, 2010
  #
  #  Suggested "tight" defaults for P atom (to be pasted into control.in file)
  #
  #  Revised Jan 04, 2011, following tests (SiC) done by Lydia Nemec:
  #     d function of tier 2 now enabled by default.
  #
  ################################################################################
    species        P
  #     global species definitions
      nucleus             15
      mass                30.973762
  #
      l_hartree           6
  #
      cut_pot             4.0          2.0  1.0
      basis_dep_cutoff    1e-4
  #
      radial_base         43 7.0
      radial_multiplier   2
      angular_grids       specified
        division   0.2995   50
        division   0.5998  110
        division   0.9240  194
        division   1.0921  302
        division   1.2863  434
  #      division   1.3165  590
  #      division   1.4113  770
  #      division   1.5128  974
  #      division   2.4980 1202
        outer_grid  434
  ################################################################################
  #
  #  Definition of "minimal" basis
  #
  ################################################################################
  #     valence basis states
      valence      3  s   2.
      valence      3  p   3.
  #     ion occupancy
      ion_occ      3  s   1.
      ion_occ      3  p   2.
  ################################################################################
  #
  #  Suggested additional basis functions. For production calculations,
  #  uncomment them one after another (the most important basis functions are
  #  listed first).
  #
  #  Constructed for dimers: 1.625 A, 1.875 A, 2.5 A, 3.25 A, 4.0 A
  #
  ################################################################################
  #  "First tier" - improvements: -726.20 meV to -35.91 meV
       ionic 3 d auto
       ionic 3 p auto
       hydro 4 f 6.2
       hydro 5 g 8.6
       ionic 3 s auto
  #  "Second tier" - improvements: -16.02 meV to -1.71 meV
       hydro 4 d 6.2
  #     hydro 4 p 9.2
  #     hydro 5 f 9.8
  #     hydro 1 s 0.7
  #     hydro 5 g 13.2
  #  "Third tier" - improvements: -1.82 meV to -0.20 meV
  #     hydro 3 p 2.5
  #     hydro 4 d 6.4
  #     hydro 5 f 11.2
  #     hydro 2 s 1.5
  #  "Fourth tier" - improvements: -0.91 meV to -0.17 meV
  #     hydro 3 d 16.8
  #     hydro 5 g 18
  #     hydro 4 p 4.5
  #     hydro 3 s 2.1
  #  Further basis functions that fell out of the optimization - < -0.09 meV
  #     hydro 4 p 10.4
  #     hydro 4 d 17.6
  #     hydro 4 s 11.2
  ################################################################################
  #
  # For methods that use the localized form of the "resolution of identity" for
  # the two-electron Coulomb operator (RI_method LVL), particularly Hartree-Fock and
  # hybrid density functional calculations, the highest accuracy can be obtained by
  # uncommenting the line beginning with "for_aux"  below, thus adding an extra g radial
  # function to the construction of the product basis set for the expansion.
  # See Ref. New J. Phys. 17, 093020 (2015) for more information, particularly Figs. 1 and 6.
  #
  ################################################################################
  #
  # for_aux hydro 5 g 6.0
  ################################################################################
  #
  #  FHI-aims code project
  # Volker Blum, Fritz Haber Institute Berlin, 2009
  #
  #  Suggested "tight" defaults for S atom (to be pasted into control.in file)
  #
  #  Revised Jan 04, 2011, following tests (SiC) done by Lydia Nemec:
  #     d and g functions of tier 2 now enabled by default.
  #
  ################################################################################
    species        S
  #     global species definitions
      nucleus             16
      mass                32.065
  #
      l_hartree           6
  #
      cut_pot             4.0          2.0  1.0
      basis_dep_cutoff    1e-4
  #
      radial_base         44 7.0
      radial_multiplier   2
      angular_grids       specified
        division   0.4665  110
        division   0.5810  194
        division   0.7139  302
        division   0.8274  434
  #      division   0.9105  590
  #      division   1.0975  770
  #      division   1.2028  974
  #      outer_grid  974
        outer_grid  434
  ################################################################################
  #
  #  Definition of "minimal" basis
  #
  ################################################################################
  #     valence basis states
      valence      3  s   2.
      valence      3  p   4.
  #     ion occupancy
      ion_occ      3  s   1.
      ion_occ      3  p   3.
  ################################################################################
  #
  #  Suggested additional basis functions. For production calculations,
  #  uncomment them one after another (the most important basis functions are
  #  listed first).
  #
  #  Constructed for dimers: 1.6 A, 1.9 A, 2.5 A, 3.25 A, 4.0 A
  #
  ################################################################################
  #  "First tier" - improvements: -652.81 meV to -45.53 meV
       ionic 3 d auto
       hydro 2 p 1.8
       hydro 4 f 7
       ionic 3 s auto
  #  "Second tier" - improvements: -30.20 meV to -1.74 meV
       hydro 4 d 6.2
       hydro 5 g 10.8
  #     hydro 4 p 4.9
  #     hydro 5 f 10
  #     hydro 1 s 0.8
  #  "Third tier" - improvements: -1.04 meV to -0.20 meV
  #     hydro 3 d 3.9
  #     hydro 3 d 2.7
  #     hydro 5 g 12
  #     hydro 4 p 10.4
  #     hydro 5 f 12.4
  #     hydro 2 s 1.9
  #  "Fourth tier" - improvements: -0.35 meV to -0.06 meV
  #     hydro 4 d 10.4
  #     hydro 4 p 7.2
  #     hydro 4 d 10
  #     hydro 5 g 19.2
  #     hydro 4 s 12
  
  ################################################################################
  #
  # For methods that use the localized form of the "resolution of identity" for
  # the two-electron Coulomb operator (RI_method LVL), particularly Hartree-Fock and
  # hybrid density functional calculations, the highest accuracy can be obtained by
  # uncommenting the line beginning with "for_aux"  below, thus adding an extra g radial
  # function to the construction of the product basis set for the expansion.
  # See Ref. New J. Phys. 17, 093020 (2015) for more information, particularly Figs. 1 and 6.
  #
  ################################################################################
  #
  # for_aux hydro 5 g 6.0
  ################################################################################
  #
  #  FHI-aims code project
  # Volker Blum, Fritz Haber Institute Berlin, 2009
  #
  #  Suggested "tight" defaults for Cl atom (to be pasted into control.in file)
  #
  #  Revised Jan 04, 2011, following tests (SiC) done by Lydia Nemec:
  #     d function of tier 2 now enabled by default.
  #
  ################################################################################
    species        Cl
  #     global species definitions
      nucleus             17
      mass                35.453
  #
      l_hartree           6
  #
      cut_pot             4.0          2.0  1.0
      basis_dep_cutoff    1e-4
  #
      radial_base         45 7.0
      radial_multiplier   2
      angular_grids       specified
        division   0.4412  110
        division   0.5489  194
        division   0.6734  302
        division   0.7794  434
  #      division   0.9402  590
  #      division   1.0779  770
  #      division   1.1792  974
  #      outer_grid  974
        outer_grid  434
  ################################################################################
  #
  #  Definition of "minimal" basis
  #
  ################################################################################
  #     valence basis states
      valence      3  s   2.
      valence      3  p   5.
  #     ion occupancy
      ion_occ      3  s   1.
      ion_occ      3  p   4.
  ################################################################################
  #
  #  Suggested additional basis functions. For production calculations,
  #  uncomment them one after another (the most important basis functions are
  #  listed first).
  #
  #  Constructed for dimers: 1.65 A, 2.0 A, 2.5 A, 3.25 A, 4.0 A
  #
  ################################################################################
  #  "First tier" - improvements: -429.57 meV to -15.03 meV
       ionic 3 d auto
       hydro 2 p 1.9
       hydro 4 f 7.4
       ionic 3 s auto
       hydro 5 g 10.4
  #  "Second tier" - improvements: -7.84 meV to -0.48 meV
       hydro 3 d 3.3
  #     hydro 5 f 9.8
  #     hydro 1 s 0.75
  #     hydro 5 g 11.2
  #     hydro 4 p 10.4
  #  "Third tier" - improvements: -1.00 meV to -0.12 meV
  #     hydro 4 d 12.8
  #     hydro 4 f 4.6
  #     hydro 4 d 10.8
  #     hydro 2 s 1.8
  #     hydro 3 p 3
  #  Further functions that fell out - improvements: -0.10 meV and below
  #     hydro 5 f 14.4
  #     hydro 4 s 12.8
  #     hydro 3 d 11.6
  #     hydro 4 s 4.1
  ################################################################################
  #
  # For methods that use the localized form of the "resolution of identity" for
  # the two-electron Coulomb operator (RI_method LVL), particularly Hartree-Fock and
  # hybrid density functional calculations, the highest accuracy can be obtained by
  # uncommenting the line beginning with "for_aux"  below, thus adding an extra g radial
  # function to the construction of the product basis set for the expansion.
  # See Ref. New J. Phys. 17, 093020 (2015) for more information, particularly Figs. 1 and 6.
  #
  ################################################################################
  #
  # for_aux hydro 5 g 6.0
  
  
  -----------------------------------------------------------------------
  Completed first pass over input file control.in .
  -----------------------------------------------------------------------
  
  
  -----------------------------------------------------------------------
  Parsing geometry.in (first pass over file, find array dimensions only).
  The contents of geometry.in will be repeated verbatim below
  unless switched off by setting 'verbatim_writeout .false.' .
  in the first line of geometry.in .
  -----------------------------------------------------------------------
  
  #=======================================================
  # FHI-aims file: ./geo/geometry.in.4
  # Created using the Atomic Simulation Environment (ASE)
  # Tue Feb 22 23:54:07 2022
  #=======================================================
  lattice_vector 7.1960157126000004 0.0000000000000000 0.0000000000000000
  lattice_vector 3.5980078563000011 6.2319324131435794 0.0000000000000000
  lattice_vector 3.5980078563000011 2.0773108043811939 5.8755222256400934
  atom 1.9653254393153243 1.1346811714339220 2.8019601676188270 Li
  atom 5.2306902732846767 3.0199404373284651 0.1358009452012195 Li
  atom 5.2306902732846767 1.1346811714339220 2.8019601676188270 Li
  atom 1.9653254393153243 3.0199404373284651 0.1358009452012195 Li
  atom 3.5980078563000002 0.1920515384866501 0.1358009452012195 Li
  atom 3.5980078563000011 3.9625700702757363 2.8019601676188270 Li
  atom 7.1960157126000013 4.1546216087623868 2.9377611128200467 P
  atom 5.5334146369675201 5.1145247457875449 3.6165151302927758 S
  atom 7.1960156766199228 4.1546215879892801 0.9014990016466364 S
  atom 7.1960156766199228 2.2348152723927455 3.6165151302927758 S
  atom 8.8586167162723246 5.1145247457875449 3.6165151302927758 S
  atom 3.5980078563000006 2.0773108043811934 1.4688805564100234 S
  atom 0.0000000000000000 0.0000000000000000 0.0000000000000000 Cl
  
  -----------------------------------------------------------------------
  Completed first pass over input file geometry.in .
  -----------------------------------------------------------------------
  

  Basic array size parameters:
  | Number of species                 :        4
  | Number of atoms                   :       13
  | Number of lattice vectors         :        3
  | Max. basis fn. angular momentum   :        4
  | Max. atomic/ionic basis occupied n:        3
  | Max. number of basis fn. types    :        3
  | Max. radial fns per species/type  :        8
  | Max. logarithmic grid size        :     1362
  | Max. radial integration grid size :       91
  | Max. angular integration grid size:      434
  | Max. angular grid division number :        8
  | Radial grid for Hartree potential :     1362
  | Number of spin channels           :        1

------------------------------------------------------------
          Reading file control.in.
------------------------------------------------------------
  XC: Using PBE gradient-corrected functionals.
  Convergence accuracy of total energy:  0.1000E-05
  Convergence accuracy of sum of eigenvalues:  0.1000E-02
  Convergence accuracy of self-consistent charge density:  0.1000E-05
  Convergence accuracy of forces:  0.1000E-03
  Using the default MBD implementation with analytical forces
  Found k-point grid:         3         3         3
 
  Reading configuration options for species Li                  .
  | Found nuclear charge :   3.0000
  | Found atomic mass :    6.94100000000000      amu
  | Found l_max for Hartree potential  :   6
  | Found cutoff potl. onset [A], width [A], scale factor :    5.00000    2.00000    1.00000
  | Threshold for basis-dependent cutoff potential is   0.100000E-03
  | Found data for basic radial integration grid :    29 points, outermost radius =    7.000 A
  | Found multiplier for basic radial grid :   2
  | Found angular grid specification: user-specified.
  | Specified grid contains     5 separate shells.
  | Check grid settings after all constraints further below.
  | Found free-atom valence shell :  2 s   1.000
  | Found free-ion valence shell :  1 s   2.000
  | Found hydrogenic basis function :  2 p   1.600
  | Found hydrogenic basis function :  2 s   2.000
  | Found hydrogenic basis function :  3 d   2.600
  | Found hydrogenic basis function :  3 p   4.600
  | Found hydrogenic basis function :  2 p   1.800
  | Found hydrogenic basis function :  3 s   6.200
  | Found hydrogenic basis function :  4 d   4.700
  | Found hydrogenic basis function :  4 f   4.100
  Species Li                  : Missing cutoff potential type.
  Defaulting to exp(1/x)/(1-x)^2 type cutoff potential.
  Species Li: No 'logarithmic' tag. Using default grid for free atom:
  | Default logarithmic grid data [bohr] : 0.1000E-03 0.1000E+03 0.1012E+01
  Species Li: On-site basis accuracy parameter (for Gram-Schmidt orthonormalisation) not specified.
  Using default value basis_acc =  0.1000000E-03.
  Species Li                  : Using default innermost maximum threshold i_radial=  2 for radial functions.
  Species Li                  : Default cutoff onset for free atom density etc. : 0.50000000E+01 AA.
  Species Li                  : Basic radial grid will be enhanced according to radial_multiplier =   2, to contain    59 grid points.
 
  Reading configuration options for species P                   .
  | Found nuclear charge :  15.0000
  | Found atomic mass :    30.9737620000000      amu
  | Found l_max for Hartree potential  :   6
  | Found cutoff potl. onset [A], width [A], scale factor :    4.00000    2.00000    1.00000
  | Threshold for basis-dependent cutoff potential is   0.100000E-03
  | Found data for basic radial integration grid :    43 points, outermost radius =    7.000 A
  | Found multiplier for basic radial grid :   2
  | Found angular grid specification: user-specified.
  | Specified grid contains     6 separate shells.
  | Check grid settings after all constraints further below.
  | Found free-atom valence shell :  3 s   2.000
  | Found free-atom valence shell :  3 p   3.000
  | Found free-ion valence shell :  3 s   1.000
  | Found free-ion valence shell :  3 p   2.000
  | Found ionic basis function :  3 d , default cutoff radius.
  | Found ionic basis function :  3 p , default cutoff radius.
  | Found hydrogenic basis function :  4 f   6.200
  | Found hydrogenic basis function :  5 g   8.600
  | Found ionic basis function :  3 s , default cutoff radius.
  | Found hydrogenic basis function :  4 d   6.200
  Species P                   : Missing cutoff potential type.
  Defaulting to exp(1/x)/(1-x)^2 type cutoff potential.
  Species P : No 'logarithmic' tag. Using default grid for free atom:
  | Default logarithmic grid data [bohr] : 0.1000E-03 0.1000E+03 0.1012E+01
  | Will include ionic basis functions of  2.0-fold positive P                    ion.
  Species P : On-site basis accuracy parameter (for Gram-Schmidt orthonormalisation) not specified.
  Using default value basis_acc =  0.1000000E-03.
  Species P                   : Using default innermost maximum threshold i_radial=  2 for radial functions.
  Species P                   : Default cutoff onset for free atom density etc. : 0.40000000E+01 AA.
  Species P                   : Basic radial grid will be enhanced according to radial_multiplier =   2, to contain    87 grid points.
 
  Reading configuration options for species S                   .
  | Found nuclear charge :  16.0000
  | Found atomic mass :    32.0650000000000      amu
  | Found l_max for Hartree potential  :   6
  | Found cutoff potl. onset [A], width [A], scale factor :    4.00000    2.00000    1.00000
  | Threshold for basis-dependent cutoff potential is   0.100000E-03
  | Found data for basic radial integration grid :    44 points, outermost radius =    7.000 A
  | Found multiplier for basic radial grid :   2
  | Found angular grid specification: user-specified.
  | Specified grid contains     5 separate shells.
  | Check grid settings after all constraints further below.
  | Found free-atom valence shell :  3 s   2.000
  | Found free-atom valence shell :  3 p   4.000
  | Found free-ion valence shell :  3 s   1.000
  | Found free-ion valence shell :  3 p   3.000
  | Found ionic basis function :  3 d , default cutoff radius.
  | Found hydrogenic basis function :  2 p   1.800
  | Found hydrogenic basis function :  4 f   7.000
  | Found ionic basis function :  3 s , default cutoff radius.
  | Found hydrogenic basis function :  4 d   6.200
  | Found hydrogenic basis function :  5 g  10.800
  Species S                   : Missing cutoff potential type.
  Defaulting to exp(1/x)/(1-x)^2 type cutoff potential.
  Species S : No 'logarithmic' tag. Using default grid for free atom:
  | Default logarithmic grid data [bohr] : 0.1000E-03 0.1000E+03 0.1012E+01
  | Will include ionic basis functions of  2.0-fold positive S                    ion.
  Species S : On-site basis accuracy parameter (for Gram-Schmidt orthonormalisation) not specified.
  Using default value basis_acc =  0.1000000E-03.
  Species S                   : Using default innermost maximum threshold i_radial=  2 for radial functions.
  Species S                   : Default cutoff onset for free atom density etc. : 0.40000000E+01 AA.
  Species S                   : Basic radial grid will be enhanced according to radial_multiplier =   2, to contain    89 grid points.
 
  Reading configuration options for species Cl                  .
  | Found nuclear charge :  17.0000
  | Found atomic mass :    35.4530000000000      amu
  | Found l_max for Hartree potential  :   6
  | Found cutoff potl. onset [A], width [A], scale factor :    4.00000    2.00000    1.00000
  | Threshold for basis-dependent cutoff potential is   0.100000E-03
  | Found data for basic radial integration grid :    45 points, outermost radius =    7.000 A
  | Found multiplier for basic radial grid :   2
  | Found angular grid specification: user-specified.
  | Specified grid contains     5 separate shells.
  | Check grid settings after all constraints further below.
  | Found free-atom valence shell :  3 s   2.000
  | Found free-atom valence shell :  3 p   5.000
  | Found free-ion valence shell :  3 s   1.000
  | Found free-ion valence shell :  3 p   4.000
  | Found ionic basis function :  3 d , default cutoff radius.
  | Found hydrogenic basis function :  2 p   1.900
  | Found hydrogenic basis function :  4 f   7.400
  | Found ionic basis function :  3 s , default cutoff radius.
  | Found hydrogenic basis function :  5 g  10.400
  | Found hydrogenic basis function :  3 d   3.300
  Species Cl                  : Missing cutoff potential type.
  Defaulting to exp(1/x)/(1-x)^2 type cutoff potential.
  Species Cl: No 'logarithmic' tag. Using default grid for free atom:
  | Default logarithmic grid data [bohr] : 0.1000E-03 0.1000E+03 0.1012E+01
  | Will include ionic basis functions of  2.0-fold positive Cl                   ion.
  Species Cl: On-site basis accuracy parameter (for Gram-Schmidt orthonormalisation) not specified.
  Using default value basis_acc =  0.1000000E-03.
  Species Cl                  : Using default innermost maximum threshold i_radial=  2 for radial functions.
  Species Cl                  : Default cutoff onset for free atom density etc. : 0.40000000E+01 AA.
  Species Cl                  : Basic radial grid will be enhanced according to radial_multiplier =   2, to contain    91 grid points.
  | MBD: Using the same k-grid sampling as DFT
 
  Finished reading input file 'control.in'. Consistency checks are next.
 
  MPI_IN_PLACE appears to work with this MPI implementation.
  | Keeping use_mpi_in_place .true. (see manual).
  Target number of points in a grid batch is not set. Defaulting to  100
  Method for grid partitioning is not set. Defaulting to parallel hash+maxmin partitioning.
  Batch size limit is not set. Defaulting to    200
  By default, will store active basis functions for each batch.
  If in need of memory, prune_basis_once .false. can be used to disable this option.
  communication_type for Hartree potential was not specified.
  Defaulting to calc_hartree .
  Defaulting to Pulay charge density mixer.
  Pulay mixer: Number of relevant iterations not set.
  Defaulting to    8 iterations.
  Pulay mixer: Number of initial linear mixing iterations not set.
  Defaulting to    0 iterations.
  Work space size for distributed Hartree potential not set.
  Defaulting to   0.200000E+03 MB.
  Mixing parameter for charge density mixing has not been set.
  Using default: charge_mix_param =     0.0500.
  The mixing parameter will be adjusted in iteration number     2 of the first full s.c.f. cycle only.
  Algorithm-dependent basis array size parameters:
  | n_max_pulay                         :        8
  Maximum number of self-consistency iterations not provided.
  Presetting  1000 iterations.
  Presetting      1001 iterations before the initial mixing cycle
  is restarted anyway using the sc_init_iter criterion / keyword.
  Presetting a factor      1.000 between actual scf density residual
  and density convergence criterion sc_accuracy_rho below which sc_init_iter
  takes no effect.
  Geometry relaxation not requested: no relaxation will be performed.
  Handling of forces: Unphysical translation and rotation will be removed from forces.
  No accuracy limit for integral partition fn. given. Defaulting to  0.1000E-14.
  No threshold value for u(r) in integrations given. Defaulting to  0.1000E-05.
  No occupation type (smearing scheme) given. Defaulting to Gaussian broadening, width =  0.1000E-01 eV.
  The width will be adjusted in iteration number     2 of the first full s.c.f. cycle only.
  S.C.F. convergence parameters will be adjusted in iteration number     2 of the first full s.c.f. cycle only.
  No accuracy for occupation numbers given. Defaulting to  0.1000E-12.
  No threshold value for occupation numbers given. Defaulting to  0.0000E+00.
  No accuracy for fermi level given. Defaulting to  0.1000E-19.
  Maximum # of iterations to find E_F not set. Defaulting to  200.
  Preferred method for the eigenvalue solver ('KS_method') not specified in 'control.in'.
  Defaulting to serial version, 'lapack_fast'.
  Will not use alltoall communication since running on < 1024 CPUs.
  Threshold for basis singularities not set.
  Default threshold for basis singularities:  0.1000E-04
  partition_type (choice of integration weights) for integrals was not specified.
  | Using a version of the partition function of Stratmann and coworkers ('stratmann_smoother').
  | At each grid point, the set of atoms used to build the partition table is smoothly restricted to
  | only those atoms whose free-atom density would be non-zero at that grid point.
  Partitioning for Hartree potential was not defined. Using partition_type for integrals.
  | Adjusted default value of keyword multip_moments_threshold to:       0.10000000E-11
  | This value may affect high angular momentum components of the Hartree potential in periodic systems.
  Spin handling was not defined in control.in. Defaulting to unpolarized case.
  Angular momentum expansion for Kerker preconditioner not set explicitly.
  | Using default value of   0
  No explicit requirement for turning off preconditioner.
  | By default, it will be turned off when the charge convergence reaches
  | sc_accuracy_rho  =   0.100000E-05
  | sc_accuracy_eev  =   0.100000E-02
  | sc_accuracy_etot =   0.100000E-05
  No special mixing parameter while Kerker preconditioner is on.
  Using default: charge_mix_param =     0.0500.
  No q(lm)/r^(l+1) cutoff set for long-range Hartree potential.
  | Using default value of  0.100000E-09 .
  | Verify using the multipole_threshold keyword.
  Defaulting to new monopole extrapolation.
  Density update method: automatic selection selected.
  Using density matrix based charge density update.
  Using density matrix based charge density update.
  Using packed matrix style: index .
  Defaulting to use time-reversal symmetry for k-point grid.
------------------------------------------------------------


------------------------------------------------------------
          Reading geometry description geometry.in.
------------------------------------------------------------
 * Warning! You did not set the 'relativistic' flag in input file 'control.in'.
 * Since you are not attempting to treat any elements beyond Ca(Z=20), FHI-aims
 * will default to 'relativistic none'.
 * You must ensure that this is really what you want!!
 * For example, DO NOT compute total-energy differences between results from
 * different settings of the 'relativistic' flag.
  Input structure read successfully.
  The structure contains       13 atoms,  and a total of        130.000 electrons.

  Input geometry:
  | Unit cell:
  |        7.19601571        0.00000000        0.00000000
  |        3.59800786        6.23193241        0.00000000
  |        3.59800786        2.07731080        5.87552223
  | Atomic structure:
  |       Atom                x [A]            y [A]            z [A]
  |    1: Species Li            1.96532544        1.13468117        2.80196017
  |    2: Species Li            5.23069027        3.01994044        0.13580095
  |    3: Species Li            5.23069027        1.13468117        2.80196017
  |    4: Species Li            1.96532544        3.01994044        0.13580095
  |    5: Species Li            3.59800786        0.19205154        0.13580095
  |    6: Species Li            3.59800786        3.96257007        2.80196017
  |    7: Species P             7.19601571        4.15462161        2.93776111
  |    8: Species S             5.53341464        5.11452475        3.61651513
  |    9: Species S             7.19601568        4.15462159        0.90149900
  |   10: Species S             7.19601568        2.23481527        3.61651513
  |   11: Species S             8.85861672        5.11452475        3.61651513
  |   12: Species S             3.59800786        2.07731080        1.46888056
  |   13: Species Cl            0.00000000        0.00000000        0.00000000

  Lattice parameters for 3D lattice (in Angstroms) :     7.196016    7.196016    7.196016
  Angle(s) between unit vectors (in degrees)      :    60.000000   60.000000   60.000000

  |

  | The smallest distance between any two atoms is         2.03626205 AA.
  |
  | The first atom of this pair is atom number                      7 .
  | The second atom of this pair is atom number                    11 .
  | Wigner-Seitz cell of the first atom image           0     0     0 .
  | (The Wigner-Seitz cell of the second atom is 0 0 0  by definition.)

  Symmetry information by spglib:
  | Precision set to  0.1E-04
  | Number of Operations  : 24
  | Space group           : 216
  | International         : F-43m
  | Schoenflies           : Td^2

  Quantities derived from the lattice vectors:
  | Reciprocal lattice vector 1:  0.873148 -0.504112 -0.356461
  | Reciprocal lattice vector 2:  0.000000  1.008224 -0.356461
  | Reciprocal lattice vector 3:  0.000000  0.000000  1.069383
  | Unit cell volume                               :   0.263488E+03  A^3

  Range separation radius for Ewald summation (hartree_convergence_parameter):      3.90633976 bohr.

  Fractional coordinates:
                         L1                L2                L3
       atom_frac         0.02311300        0.02311300        0.47688700  Li
       atom_frac         0.47688700        0.47688700        0.02311300  Li
       atom_frac         0.47688700        0.02311300        0.47688700  Li
       atom_frac         0.02311300        0.47688700        0.02311300  Li
       atom_frac         0.47688700        0.02311300        0.02311300  Li
       atom_frac         0.02311300        0.47688700        0.47688700  Li
       atom_frac         0.50000000        0.50000000        0.50000000  P
       atom_frac         0.15343300        0.61552233        0.61552233  S
       atom_frac         0.61552233        0.61552233        0.15343300  S
       atom_frac         0.61552233        0.15343300        0.61552233  S
       atom_frac         0.61552233        0.61552233        0.61552233  S
       atom_frac         0.25000000        0.25000000        0.25000000  S
       atom_frac         0.00000000        0.00000000        0.00000000  Cl

  Number of empty states per atom not set in control.in - providing a guess from actual geometry.
  | Total number of empty states used during s.c.f. cycle:       30
  If you use a very high smearing, use empty_states (per atom!) in control.in to increase this value.

  Structure-dependent array size parameters: 
  | Maximum number of distinct radial functions  :       43
  | Maximum number of basis functions            :      453
  | Number of Kohn-Sham states (occupied + empty):       95
------------------------------------------------------------

------------------------------------------------------------
          Preparing all fixed parts of the calculation.
------------------------------------------------------------
  Determining machine precision:
    2.225073858507201E-308
  Setting up grids for atomic and cluster calculations.

  Creating wave function, potential, and density for free atoms.

  Species: Li

  List of occupied orbitals and eigenvalues:
    n    l              occ      energy [Ha]    energy [eV]
    1    0           2.0000        -1.901473       -51.7417
    2    0           1.0000        -0.103132        -2.8064


  Species: P

  List of occupied orbitals and eigenvalues:
    n    l              occ      energy [Ha]    energy [eV]
    1    0           2.0000       -76.356288     -2077.7603
    2    0           2.0000        -6.358286      -173.0178
    3    0           2.0000        -0.509419       -13.8620
    2    1           6.0000        -4.573976      -124.4642
    3    1           3.0000        -0.201560        -5.4847


  Species: S

  List of occupied orbitals and eigenvalues:
    n    l              occ      energy [Ha]    energy [eV]
    1    0           2.0000       -88.108280     -2397.5483
    2    0           2.0000        -7.732485      -210.4116
    3    0           2.0000        -0.629532       -17.1304
    2    1           6.0000        -5.750324      -156.4743
    3    1           4.0000        -0.257562        -7.0086


  Species: Cl

  List of occupied orbitals and eigenvalues:
    n    l              occ      energy [Ha]    energy [eV]
    1    0           2.0000      -100.710795     -2740.4802
    2    0           2.0000        -9.222997      -250.9705
    3    0           2.0000        -0.754245       -20.5241
    2    1           6.0000        -7.039872      -191.5647
    3    1           5.0000        -0.316221        -8.6048

  Creating fixed part of basis set: Ionic, confined, hydrogenic.
 
  Li                   hydrogenic:
 
  List of hydrogenic basis orbitals: 
    n    l      effective z      eigenvalue [eV]  inner max. [A]     outer max. [A]     outer radius [A]   
    2    1         1.600000        -8.7048           1.319365           1.319365           6.386418
    2    0         2.000000       -13.6052           0.203259           1.385485           6.232164
    3    2         2.600000       -10.2084           1.835332           1.835332           6.386418
    3    1         4.600000       -31.9883           0.343834           1.385485           5.381805
    2    1         1.800000       -11.0199           1.181903           1.181903           6.386418
    3    0         6.200000       -58.1113           0.062858           1.111823           4.371906
    4    2         4.700000       -18.7772           0.761113           2.401695           6.386418
    4    3         4.100000       -14.2833           2.073992           2.073992           6.386418
 
 
  P                    ion:

  List of free ionic orbitals and eigenvalues:
    n    l      energy [Ha]    energy [eV]
    1    0       -77.297133     -2103.3620
    2    0        -7.273914      -197.9333
    3    0        -1.267536       -34.4914
    2    1        -5.491316      -149.4263
    3    1        -0.913470       -24.8568


  List of ionic basis orbitals and eigenvalues:
    n    l      energy [Ha]    energy [eV]    outer radius [A]
    3    2        -0.458060       -12.4644       5.404780
    3    1        -0.913461       -24.8565       4.724723
    3    0        -1.267529       -34.4912       4.232463

 
  P                    hydrogenic:
 
  List of hydrogenic basis orbitals: 
    n    l      effective z      eigenvalue [eV]  inner max. [A]     outer max. [A]     outer radius [A]   
    4    3         6.200000       -32.6870           1.357793           1.357793           5.339109
    5    4         8.600000       -40.2502           1.534356           1.534356           5.404780
    4    2         6.200000       -32.6848           0.577014           1.820771           5.404780
 
 
  S                    ion:

  List of free ionic orbitals and eigenvalues:
    n    l      energy [Ha]    energy [eV]
    1    0       -89.127201     -2425.2745
    2    0        -8.724378      -237.4024
    3    0        -1.464668       -39.8556
    2    1        -6.744348      -183.5230
    3    1        -1.048520       -28.5317


  List of ionic basis orbitals and eigenvalues:
    n    l      energy [Ha]    energy [eV]    outer radius [A]
    3    2        -0.496514       -13.5108       5.386362
    3    0        -1.464662       -39.8555       3.967934

 
  S                    hydrogenic:
 
  List of hydrogenic basis orbitals: 
    n    l      effective z      eigenvalue [eV]  inner max. [A]     outer max. [A]     outer radius [A]   
    2    1         1.800000       -11.0118           1.168531           1.168531           5.452614
    4    3         7.000000       -41.6672           1.212182           1.212182           5.066981
    4    2         6.200000       -32.6848           0.582121           1.814567           5.386362
    5    4        10.800000       -63.4785           1.227092           1.227092           4.766538
 
 
  Cl                   ion:

  List of free ionic orbitals and eigenvalues:
    n    l      energy [Ha]    energy [eV]
    1    0      -101.807232     -2770.3157
    2    0       -10.290876      -280.0290
    3    0        -1.664625       -45.2967
    2    1        -8.110237      -220.6908
    3    1        -1.183915       -32.2160


  List of ionic basis orbitals and eigenvalues:
    n    l      energy [Ha]    energy [eV]    outer radius [A]
    3    2        -0.529392       -14.4055       5.389057
    3    0        -1.664620       -45.2966       3.780461

 
  Cl                   hydrogenic:
 
  List of hydrogenic basis orbitals: 
    n    l      effective z      eigenvalue [eV]  inner max. [A]     outer max. [A]     outer radius [A]   
    2    1         1.900000       -12.2741           1.113321           1.113321           5.389057
    4    3         7.400000       -46.5653           1.140877           1.140877           4.886961
    5    4        10.400000       -58.8635           1.273568           1.273568           4.886961
    3    2         3.300000       -16.4532           1.439178           1.439178           5.455343
 

  Adding cutoff potential to free-atom effective potential.
  Creating atomic-like basis functions for current effective potential.

  Species Li                  :

  List of atomic basis orbitals and eigenvalues:
    n    l      energy [Ha]    energy [eV]    outer radius [A]
    1    0        -1.901473       -51.7417       4.318785
    2    0        -0.103132        -2.8064       6.464971


  Species P                   :

  List of atomic basis orbitals and eigenvalues:
    n    l      energy [Ha]    energy [eV]    outer radius [A]
    1    0       -76.356288     -2077.7603       0.736837
    2    0        -6.358286      -173.0178       2.532824
    3    0        -0.509419       -13.8620       5.274236
    2    1        -4.573976      -124.4642       2.862183
    3    1        -0.201560        -5.4847       5.404780


  Species S                   :

  List of atomic basis orbitals and eigenvalues:
    n    l      energy [Ha]    energy [eV]    outer radius [A]
    1    0       -88.108280     -2397.5483       0.682391
    2    0        -7.732485      -210.4116       2.317169
    3    0        -0.629532       -17.1304       5.256262
    2    1        -5.750324      -156.4743       2.555240
    3    1        -0.257562        -7.0086       5.386362


  Species Cl                  :

  List of atomic basis orbitals and eigenvalues:
    n    l      energy [Ha]    energy [eV]    outer radius [A]
    1    0      -100.710795     -2740.4802       0.642251
    2    0        -9.222997      -250.9705       2.128190
    3    0        -0.754245       -20.5241       5.194994
    2    1        -7.039872      -191.5647       2.346844
    3    1        -0.316221        -8.6048       5.323577

  Assembling full basis from fixed parts.
  | Species Li :   atomic orbital   1 s accepted.
  | Species Li :    hydro orbital   3 s accepted.
  | Species Li :    hydro orbital   2 s accepted.
  | Species Li :   atomic orbital   2 s accepted.
  | Species Li :    hydro orbital   3 p accepted.
  | Species Li :    hydro orbital   2 p accepted.
  | Species Li :    hydro orbital   2 p accepted.
  | Species Li :    hydro orbital   3 d accepted.
  | Species Li :    hydro orbital   4 d accepted.
  | Species Li :    hydro orbital   4 f accepted.
  | Species P :   atomic orbital   1 s accepted.
  | Species P :   atomic orbital   2 s accepted.
  | Species P :    ionic orbital   3 s accepted.
  | Species P :   atomic orbital   3 s accepted.
  | Species P :   atomic orbital   2 p accepted.
  | Species P :    ionic orbital   3 p accepted.
  | Species P :   atomic orbital   3 p accepted.
  | Species P :    ionic orbital   3 d accepted.
  | Species P :    hydro orbital   4 d accepted.
  | Species P :    hydro orbital   4 f accepted.
  | Species P :    hydro orbital   5 g accepted.
  | Species S :   atomic orbital   1 s accepted.
  | Species S :   atomic orbital   2 s accepted.
  | Species S :    ionic orbital   3 s accepted.
  | Species S :   atomic orbital   3 s accepted.
  | Species S :   atomic orbital   2 p accepted.
  | Species S :   atomic orbital   3 p accepted.
  | Species S :    hydro orbital   2 p accepted.
  | Species S :    ionic orbital   3 d accepted.
  | Species S :    hydro orbital   4 d accepted.
  | Species S :    hydro orbital   4 f accepted.
  | Species S :    hydro orbital   5 g accepted.
  | Species Cl :   atomic orbital   1 s accepted.
  | Species Cl :   atomic orbital   2 s accepted.
  | Species Cl :    ionic orbital   3 s accepted.
  | Species Cl :   atomic orbital   3 s accepted.
  | Species Cl :   atomic orbital   2 p accepted.
  | Species Cl :   atomic orbital   3 p accepted.
  | Species Cl :    hydro orbital   2 p accepted.
  | Species Cl :    ionic orbital   3 d accepted.
  | Species Cl :    hydro orbital   3 d accepted.
  | Species Cl :    hydro orbital   4 f accepted.
  | Species Cl :    hydro orbital   5 g accepted.
 
  Basis size parameters after reduction:
  | Total number of radial functions:       43
  | Total number of basis functions :      453
 
  Per-task memory consumption for arrays in subroutine allocate_ext:
  |          11.258640MB.
  Testing on-site integration grid accuracy.
  |  Species  Function  <phi|h_atom|phi> (log., in eV)  <phi|h_atom|phi> (rad., in eV)
           1        1                -51.7417001117                -51.7417000312
           1        2                 33.5927188637                 33.5926505054
           1        3                 69.1469416012                 69.1473382425
           1        4                 48.8336153902                 48.8810182289 ***
           1        5                 17.1749490570                 17.1749098864
           1        6                 32.1201183828                 32.1217831653
           1        7                  6.0166019876                  6.0249480535
           1        8                  4.9175332206                  4.9194842525
           1        9                 28.8010599263                 28.8011051086
           1       10                  9.9331480983                  9.9353515081
           2       11              -2077.7602992527              -2077.7602630746
           2       12               -173.0177635265               -173.0177629291
           2       13                -13.5620523038                -13.5620521963
           2       14                  6.3015351439                  6.3015396353
           2       15               -124.4642131574               -124.4642129967
           2       16                 -4.8468074573                 -4.8468065719
           2       17                  5.8113348591                  5.8108493787
           2       18                  5.1218113540                  5.1217878152
           2       19                 22.1386653152                 22.1386624883
           2       20                 19.3047268689                 19.3047231214
           2       21                 30.3235883931                 30.3235836780
           3       22              -2397.5482725833              -2397.5482291499
           3       23               -210.4116306505               -210.4116300246
           3       24                -16.8591546483                -16.8591544436
           3       25                  7.5848976656                  7.5849001027
           3       26               -156.4742745766               -156.4742744285
           3       27                 -7.0089268331                 -7.0089287934
           3       28                  6.8790437028                  6.8789536772
           3       29                  6.0023049431                  6.0023019693
           3       30                 19.5634804122                 19.5634829634
           3       31                 24.6809503130                 24.6809503093
           3       32                 47.5107032033                 47.5107040524
           4       33              -2740.4801671239              -2740.4801157382
           4       34               -250.9705040601               -250.9705032686
           4       35                -20.2716828479                -20.2716826054
           4       36                  9.0161300765                  9.0161279813
           4       37               -191.5646602865               -191.5646600866
           4       38                 -8.6049187754                 -8.6049181478
           4       39                  7.6458046208                  7.6458222053
           4       40                  6.9765726558                  6.9765744583
           4       41                 16.6546700656                 16.6546956458
           4       42                 28.0343243807                 28.0343233726
           4       43                 45.0370063060                 45.0370052039
 * Note: Onsite integrals marked "***" above are less accurate than
 * onsite_accuracy_threshold =    0.03000 eV. Usually, this is harmless.
 * When in doubt, tighten the "radial" and/or "radial_multiplier" flags to check.

  Preparing densities etc. for the partition functions (integrals / Hartree potential).

  Preparations completed.
  max(cpu_time)          :      0.317 s.
  Wall clock time (cpu1) :      0.317 s.
------------------------------------------------------------

------------------------------------------------------------
          Begin self-consistency loop: Initialization.

          Date     :  20220223, Time     :  071749.180
------------------------------------------------------------

  Initializing index lists of integration centers etc. from given atomic structure:
  Mapping all atomic coordinates to central unit cell.

  Initializing the k-points
          Using symmetry for reducing the k-points
  | k-points reduced from:       27 to       14
  | Number of k-points                             :        14
  The eigenvectors in the calculations are COMPLEX.
  | K-points in task   0:        14
  | Number of basis functions in the Hamiltonian integrals :      8634
  | Number of basis functions in a single unit cell        :       453
  | Number of centers in hartree potential         :      1615
  | Number of centers in hartree multipole         :      1086
  | Number of centers in electron density summation:       837
  | Number of centers in basis integrals           :       876
  | Number of centers in integrals                 :       301
  | Number of centers in hamiltonian               :      1093
  | Consuming         29 KiB for k_phase.
  | Number of super-cells (origin) [n_cells]                     :         729
  | Number of super-cells (after PM_index) [n_cells]             :         136
  | Number of super-cells in hamiltonian [n_cells_in_hamiltonian]:         136
  | Size of matrix packed + index [n_hamiltonian_matrix_size] :     2351861
  Partitioning the integration grid into batches with parallel hashing+maxmin method.
  | Number of batches:     3945
  | Maximal batch size:     134
  | Minimal batch size:      63
  | Average batch size:      68.474
  | Standard deviation of batch sizes:      12.635

  Integration load balanced across     1 MPI tasks.
  Work distribution over tasks is as follows:
  Task     0 has     270130 integration points.
  Initializing partition tables, free-atom densities, potentials, etc. across the integration grid (initialize_grid_storage).
  | initialize_grid_storage: Actual outermost partition radius vs. multipole_radius_free
  | (-- VB: in principle, multipole_radius_free should be larger, hence this output)
  | Species        1: Confinement radius =              7.000000000000000 AA, multipole_radius_free =              7.042572113910259 AA.
  | Species        1: outer_partition_radius set to              7.042572113910259 AA .
  | Species        2: Confinement radius =              6.000000000000000 AA, multipole_radius_free =              6.033387558927091 AA.
  | Species        2: outer_partition_radius set to              6.033387558927091 AA .
  | Species        3: Confinement radius =              6.000000000000000 AA, multipole_radius_free =              6.012827091137924 AA.
  | Species        3: outer_partition_radius set to              6.012827091137924 AA .
  | Species        4: Confinement radius =              6.000000000000000 AA, multipole_radius_free =              6.015836048499353 AA.
  | Species        4: outer_partition_radius set to              6.015836048499353 AA .
  | Original list of interatomic distances with         876 x        876 entries is created.
  | Net number of integration points:   270130
  | of which are non-zero points    :   215285
  | Numerical average free-atom electrostatic potential    :    -10.05237334 eV
  Renormalizing the initial density to the exact electron count on the 3D integration grid.
  | Initial density: Formal number of electrons (from input files) :     130.0000000000
  | Integrated number of electrons on 3D grid     :     130.0000374593
  | Charge integration error                      :       0.0000374593
  | Normalization factor for density and gradient :       0.9999997119
  Obtaining max. number of non-zero basis functions in each batch (get_n_compute_maxes).
  | Maximal number of non-zero basis functions:     1786 in task     0
  Allocating        9.640 MB for KS_eigenvector_complex
  Integrating Hamiltonian matrix: batch-based integration.
  Time summed over all CPUs for integration: real work      297.473 s, elapsed      297.473 s
  Integrating overlap matrix.
  Time summed over all CPUs for integration: real work      234.589 s, elapsed      234.589 s
  Decreasing sparse matrix size:
   Tolerance:  9.999999824516700E-014
   Hamiltonian matrix
  | Array has  2049199 nonzero elements out of  2351861 elements
  | Sparsity factor is 0.129
   Overlap matrix
  | Array has  1901879 nonzero elements out of  2351861 elements
  | Sparsity factor is 0.191
  New size of hamiltonian matrix:     2049522

  Updating Kohn-Sham eigenvalues and eigenvectors using ELSI and the ELPA eigensolver.
  Overlap matrix is nonsingular
  | Lowest eigenvalue of overlap  :  0.34E-04
  | Highest eigenvalue of overlap :  0.14E+02
  Finished singularity check of overlap matrix
  | Time :     0.030 s
  Finished Cholesky decomposition
  | Time :     0.007 s
  Finished transformation to standard eigenproblem
  | Time :     0.012 s
  Starting LAPACK eigensolver
  Finished solving standard eigenproblem
  | Time :     0.030 s
  Finished back-transformation of eigenvectors
  | Time :     0.002 s

  Obtaining occupation numbers and chemical potential using ELSI.
  | Chemical potential (Fermi level):    -8.94350584eV
  Writing Kohn-Sham eigenvalues.
  K-point:       1 at    0.000000    0.000000    0.000000 (in units of recip. lattice)

  State    Occupation    Eigenvalue [Ha]    Eigenvalue [eV]
      1       2.00000        -100.719775        -2740.72451
      2       2.00000         -88.198076        -2399.99175
      3       2.00000         -88.159290        -2398.93635
      4       2.00000         -88.159290        -2398.93635
      5       2.00000         -88.159290        -2398.93635
      6       2.00000         -88.159290        -2398.93635
      7       2.00000         -76.395459        -2078.82621
      8       2.00000          -9.232541         -251.23023
      9       2.00000          -7.825900         -212.95357
     10       2.00000          -7.786787         -211.88925
     11       2.00000          -7.786787         -211.88925
     12       2.00000          -7.786787         -211.88925
     13       2.00000          -7.786787         -211.88925
     14       2.00000          -7.049344         -191.82240
     15       2.00000          -7.049344         -191.82240
     16       2.00000          -7.049344         -191.82240
     17       2.00000          -6.403998         -174.26164
     18       2.00000          -5.843336         -159.00528
     19       2.00000          -5.843336         -159.00528
     20       2.00000          -5.843336         -159.00528
     21       2.00000          -5.805171         -157.96675
     22       2.00000          -5.805171         -157.96675
     23       2.00000          -5.805171         -157.96675
     24       2.00000          -5.805171         -157.96674
     25       2.00000          -5.803810         -157.92970
     26       2.00000          -5.803810         -157.92970
     27       2.00000          -5.803810         -157.92970
     28       2.00000          -5.803810         -157.92970
     29       2.00000          -5.803810         -157.92970
     30       2.00000          -5.803810         -157.92970
     31       2.00000          -5.803810         -157.92970
     32       2.00000          -5.803810         -157.92970
     33       2.00000          -4.619198         -125.69477
     34       2.00000          -4.619198         -125.69477
     35       2.00000          -4.619198         -125.69476
     36       2.00000          -1.922319          -52.30896
     37       2.00000          -1.922166          -52.30479
     38       2.00000          -1.922166          -52.30479
     39       2.00000          -1.922165          -52.30478
     40       2.00000          -1.922094          -52.30284
     41       2.00000          -1.922094          -52.30284
     42       2.00000          -0.835855          -22.74478
     43       2.00000          -0.773023          -21.03502
     44       2.00000          -0.765477          -20.82968
     45       2.00000          -0.741797          -20.18532
     46       2.00000          -0.741797          -20.18532
     47       2.00000          -0.741797          -20.18532
     48       2.00000          -0.582256          -15.84399
     49       2.00000          -0.460477          -12.53021
     50       2.00000          -0.460477          -12.53021
     51       2.00000          -0.460477          -12.53021
     52       2.00000          -0.413062          -11.23999
     53       2.00000          -0.413062          -11.23998
     54       2.00000          -0.413062          -11.23998
     55       2.00000          -0.383383          -10.43240
     56       2.00000          -0.383383          -10.43239
     57       2.00000          -0.364570           -9.92046
     58       2.00000          -0.364570           -9.92045
     59       2.00000          -0.364570           -9.92045
     60       2.00000          -0.335964           -9.14204
     61       2.00000          -0.335964           -9.14204
     62       2.00000          -0.335964           -9.14204
     63       2.00000          -0.330744           -9.00000
     64       2.00000          -0.330744           -9.00000
     65       2.00000          -0.330744           -8.99999
     66       0.00000          -0.205273           -5.58577
     67       0.00000          -0.150033           -4.08261
     68       0.00000          -0.142070           -3.86591
     69       0.00000          -0.142069           -3.86590
     70       0.00000          -0.142069           -3.86590
     71       0.00000          -0.096294           -2.62030
     72       0.00000          -0.096293           -2.62027
     73       0.00000          -0.096293           -2.62027
     74       0.00000          -0.043394           -1.18082
     75       0.00000          -0.043394           -1.18080
     76       0.00000          -0.043394           -1.18080
     77       0.00000          -0.041148           -1.11970
     78       0.00000          -0.041148           -1.11969
     79       0.00000          -0.013462           -0.36632
     80       0.00000          -0.013461           -0.36629
     81       0.00000           0.032310            0.87921
     82       0.00000           0.032314            0.87930
     83       0.00000           0.032314            0.87931
     84       0.00000           0.050670            1.37880
     85       0.00000           0.065494            1.78219
     86       0.00000           0.065497            1.78227
     87       0.00000           0.067227            1.82934
     88       0.00000           0.067228            1.82936
     89       0.00000           0.067228            1.82937
     90       0.00000           0.075025            2.04154
     91       0.00000           0.075027            2.04158
     92       0.00000           0.075027            2.04159
     93       0.00000           0.088956            2.42062
     94       0.00000           0.088957            2.42065
     95       0.00000           0.088958            2.42066

  What follows are estimated values for band gap, HOMO, LUMO, etc.
  | They are estimated on a discrete k-point grid and not necessarily exact.
  | For converged numbers, create a DOS and/or band structure plot on a denser k-grid.

  Highest occupied state (VBM) at     -8.99247976 eV (relative to internal zero)
  | Occupation number:      2.00000000
  | K-point:       3 at    0.000000    0.333333    0.000000 (in units of recip. lattice)

  Lowest unoccupied state (CBM) at    -5.58577421 eV (relative to internal zero)
  | Occupation number:      0.00000000
  | K-point:       1 at    0.000000    0.000000    0.000000 (in units of recip. lattice)

  ESTIMATED overall HOMO-LUMO gap:      3.40670555 eV between HOMO at k-point 3 and LUMO at k-point 1
  | This appears to be an indirect band gap.
  | Smallest direct gap :      3.41422024 eV for k_point 1 at    0.000000    0.000000    0.000000 (in units of recip. lattice)
  The gap value is above 0.2 eV. Unless you are using a very sparse k-point grid,
  this system is most likely an insulator or a semiconductor.
  Calculating total energy contributions from superposition of free atom densities.

  Total energy components:
  | Sum of eigenvalues            :       -1635.95290914 Ha      -44516.54363447 eV
  | XC energy correction          :        -190.12701414 Ha       -5173.61928569 eV
  | XC potential correction       :         245.62957677 Ha        6683.92085795 eV
  | Free-atom electrostatic energy:       -1256.87803685 Ha      -34201.39153037 eV
  | Hartree energy correction     :           0.00000000 Ha           0.00000000 eV
  | Entropy correction            :          -0.00000000 Ha          -0.00000000 eV
  | ---------------------------
  | Total energy                  :       -2837.32838337 Ha      -77207.63359258 eV
  | Total energy, T -> 0          :       -2837.32838337 Ha      -77207.63359258 eV  <-- do not rely on this value for anything but (periodic) metals
  | Electronic free energy        :       -2837.32838337 Ha      -77207.63359258 eV

  Derived energy quantities:
  | Kinetic energy                :        2833.12282540 Ha       77093.19453782 eV
  | Electrostatic energy          :       -5480.32419463 Ha     -149127.20884471 eV
  | Energy correction for multipole
  | error in Hartree potential    :           0.00000000 Ha           0.00000000 eV
  | Sum of eigenvalues per atom                           :       -3424.34951034 eV
  | Total energy (T->0) per atom                          :       -5939.04873789 eV  <-- do not rely on this value for anything but (periodic) metals
  | Electronic free energy per atom                       :       -5939.04873789 eV
  Initialize hartree_potential_storage
  Max. number of atoms included in rho_multipole:           13

  End scf initialization - timings             :  max(cpu_time)    wall_clock(cpu1)
  | Time for scf. initialization               :      168.652 s         168.654 s
  | Boundary condition initialization          :        0.488 s           0.488 s
  | Integration                                :      144.608 s         144.610 s
  | Solution of K.-S. eqns.                    :        1.297 s           1.297 s
  | Grid partitioning                          :        2.942 s           2.942 s
  | Preloading free-atom quantities on grid    :        0.014 s           0.014 s
  | Free-atom superposition energy             :        2.104 s           2.104 s
  | Total energy evaluation                    :        0.000 s           0.000 s

  Partial memory accounting:
  | Current value for overall tracked memory usage on task 0  :          50.632 MB
  | Peak value for overall tracked memory usage on task 0     :          87.983 MB after allocating wave
  | Largest tracked array allocation on task 0 so far         :          25.518 MB  when allocating hamiltonian_shell
  Note:  These values currently only include a subset of arrays which are explicitly tracked.
  The "true" memory usage will be greater.
------------------------------------------------------------

------------------------------------------------------------
          Begin self-consistency iteration #    1

  Date     :  20220223, Time     :  072037.834
------------------------------------------------------------
  Evaluating new KS density using the density matrix
  Evaluating density matrix
  Time summed over all CPUs for getting density from density matrix: real work      498.314 s, elapsed      498.314 s
  Integration grid: deviation in total charge (<rho> - N_e) =  -1.250555E-12
  Pulay mixing of updated and previous charge densities.

  Evaluating partitioned Hartree potential by multipole expansion.
  | Analytical far-field extrapolation by fixed multipoles:
  | Hartree multipole sum: apparent total charge =   0.124182E-02
  Summing up the Hartree potential.
  | Estimated reciprocal-space cutoff momentum G_max:         2.49183650 bohr^-1 .
  | Reciprocal lattice points for long-range Hartree potential:     458
  Time summed over all CPUs for potential: real work       64.847 s, elapsed       64.847 s
  | RMS charge density error from multipole expansion :   0.468722E-03
  | Average real-space part of the electrostatic potential :      0.01745365 eV

  Integrating Hamiltonian matrix: batch-based integration.
  Time summed over all CPUs for integration: real work      294.191 s, elapsed      294.191 s

  Updating Kohn-Sham eigenvalues and eigenvectors using ELSI and the ELPA eigensolver.
  Finished Cholesky decomposition
  | Time :     0.007 s
  Finished transformation to standard eigenproblem
  | Time :     0.013 s
  Starting LAPACK eigensolver
  Finished solving standard eigenproblem
  | Time :     0.030 s
  Finished back-transformation of eigenvectors
  | Time :     0.002 s

  Obtaining occupation numbers and chemical potential using ELSI.
  | Chemical potential (Fermi level):    -8.90769309eV
  Writing Kohn-Sham eigenvalues.
  K-point:       1 at    0.000000    0.000000    0.000000 (in units of recip. lattice)

  State    Occupation    Eigenvalue [Ha]    Eigenvalue [eV]
      1       2.00000        -100.713112        -2740.54321
      2       2.00000         -88.184079        -2399.61089
      3       2.00000         -88.154481        -2398.80549
      4       2.00000         -88.154481        -2398.80548
      5       2.00000         -88.154481        -2398.80548
      6       2.00000         -88.154481        -2398.80548
      7       2.00000         -76.405257        -2079.09283
      8       2.00000          -9.227220         -251.08542
      9       2.00000          -7.814464         -212.64240
     10       2.00000          -7.783208         -211.79187
     11       2.00000          -7.783208         -211.79187
     12       2.00000          -7.783208         -211.79187
     13       2.00000          -7.783208         -211.79187
     14       2.00000          -7.043890         -191.67401
     15       2.00000          -7.043890         -191.67401
     16       2.00000          -7.043890         -191.67401
     17       2.00000          -6.411695         -174.47109
     18       2.00000          -5.831668         -158.68777
     19       2.00000          -5.831668         -158.68777
     20       2.00000          -5.831668         -158.68777
     21       2.00000          -5.801696         -157.87219
     22       2.00000          -5.801696         -157.87218
     23       2.00000          -5.801696         -157.87218
     24       2.00000          -5.801696         -157.87218
     25       2.00000          -5.800006         -157.82621
     26       2.00000          -5.800006         -157.82621
     27       2.00000          -5.800006         -157.82620
     28       2.00000          -5.800006         -157.82620
     29       2.00000          -5.800006         -157.82620
     30       2.00000          -5.800006         -157.82620
     31       2.00000          -5.800006         -157.82620
     32       2.00000          -5.800006         -157.82620
     33       2.00000          -4.627051         -125.90846
     34       2.00000          -4.627051         -125.90846
     35       2.00000          -4.627051         -125.90846
     36       2.00000          -1.922224          -52.30637
     37       2.00000          -1.922071          -52.30223
     38       2.00000          -1.922071          -52.30223
     39       2.00000          -1.922071          -52.30221
     40       2.00000          -1.922000          -52.30029
     41       2.00000          -1.922000          -52.30029
     42       2.00000          -0.836529          -22.76311
     43       2.00000          -0.770107          -20.95569
     44       2.00000          -0.759023          -20.65405
     45       2.00000          -0.740850          -20.15956
     46       2.00000          -0.740850          -20.15956
     47       2.00000          -0.740850          -20.15956
     48       2.00000          -0.582476          -15.84997
     49       2.00000          -0.460608          -12.53378
     50       2.00000          -0.460608          -12.53378
     51       2.00000          -0.460608          -12.53377
     52       2.00000          -0.408155          -11.10645
     53       2.00000          -0.408154          -11.10644
     54       2.00000          -0.408154          -11.10644
     55       2.00000          -0.382475          -10.40767
     56       2.00000          -0.382474          -10.40765
     57       2.00000          -0.363415           -9.88902
     58       2.00000          -0.363415           -9.88902
     59       2.00000          -0.363415           -9.88902
     60       2.00000          -0.333892           -9.08566
     61       2.00000          -0.333892           -9.08565
     62       2.00000          -0.333892           -9.08565
     63       2.00000          -0.329430           -8.96424
     64       2.00000          -0.329430           -8.96424
     65       2.00000          -0.329430           -8.96424
     66       0.00000          -0.205795           -5.59997
     67       0.00000          -0.148969           -4.05366
     68       0.00000          -0.142743           -3.88424
     69       0.00000          -0.142743           -3.88423
     70       0.00000          -0.142743           -3.88423
     71       0.00000          -0.094829           -2.58042
     72       0.00000          -0.094828           -2.58039
     73       0.00000          -0.094827           -2.58038
     74       0.00000          -0.042311           -1.15133
     75       0.00000          -0.042310           -1.15130
     76       0.00000          -0.042310           -1.15130
     77       0.00000          -0.040765           -1.10926
     78       0.00000          -0.040764           -1.10924
     79       0.00000          -0.011829           -0.32189
     80       0.00000          -0.011828           -0.32186
     81       0.00000           0.032954            0.89672
     82       0.00000           0.032957            0.89681
     83       0.00000           0.032957            0.89682
     84       0.00000           0.051869            1.41143
     85       0.00000           0.066771            1.81694
     86       0.00000           0.066774            1.81702
     87       0.00000           0.067933            1.84855
     88       0.00000           0.067934            1.84857
     89       0.00000           0.067934            1.84857
     90       0.00000           0.075723            2.06052
     91       0.00000           0.075724            2.06055
     92       0.00000           0.075724            2.06057
     93       0.00000           0.090287            2.45684
     94       0.00000           0.090288            2.45687
     95       0.00000           0.090289            2.45689

  What follows are estimated values for band gap, HOMO, LUMO, etc.
  | They are estimated on a discrete k-point grid and not necessarily exact.
  | For converged numbers, create a DOS and/or band structure plot on a denser k-grid.

  Highest occupied state (VBM) at     -8.95665715 eV (relative to internal zero)
  | Occupation number:      2.00000000
  | K-point:       3 at    0.000000    0.333333    0.000000 (in units of recip. lattice)

  Lowest unoccupied state (CBM) at    -5.59997287 eV (relative to internal zero)
  | Occupation number:      0.00000000
  | K-point:       1 at    0.000000    0.000000    0.000000 (in units of recip. lattice)

  ESTIMATED overall HOMO-LUMO gap:      3.35668428 eV between HOMO at k-point 3 and LUMO at k-point 1
  | This appears to be an indirect band gap.
  | Smallest direct gap :      3.36426452 eV for k_point 1 at    0.000000    0.000000    0.000000 (in units of recip. lattice)
  The gap value is above 0.2 eV. Unless you are using a very sparse k-point grid,
  this system is most likely an insulator or a semiconductor.

  Total energy components:
  | Sum of eigenvalues            :       -1635.61885091 Ha      -44507.45344743 eV
  | XC energy correction          :        -190.15711542 Ha       -5174.43838311 eV
  | XC potential correction       :         245.66811957 Ha        6684.96966098 eV
  | Free-atom electrostatic energy:       -1256.87803685 Ha      -34201.39153037 eV
  | Hartree energy correction     :          -0.33105221 Ha          -9.00838902 eV
  | Entropy correction            :          -0.00000000 Ha          -0.00000000 eV
  | ---------------------------
  | Total energy                  :       -2837.31693582 Ha      -77207.32208894 eV
  | Total energy, T -> 0          :       -2837.31693582 Ha      -77207.32208894 eV  <-- do not rely on this value for anything but (periodic) metals
  | Electronic free energy        :       -2837.31693582 Ha      -77207.32208894 eV

  Derived energy quantities:
  | Kinetic energy                :        2833.30767087 Ha       77098.22443887 eV
  | Electrostatic energy          :       -5480.46749127 Ha     -149131.10814471 eV
  | Energy correction for multipole
  | error in Hartree potential    :          -0.00082603 Ha          -0.02247743 eV
  | Sum of eigenvalues per atom                           :       -3423.65026519 eV
  | Total energy (T->0) per atom                          :       -5939.02477607 eV  <-- do not rely on this value for anything but (periodic) metals
  | Electronic free energy per atom                       :       -5939.02477607 eV

  Self-consistency convergence accuracy:
  | Change of charge density      :  0.2833E+00
  | Change of sum of eigenvalues  :  0.9090E+01 eV
  | Change of total energy        :  0.3115E+00 eV

  End self-consistency iteration #     1       :  max(cpu_time)    wall_clock(cpu1)
  | Time for this iteration                    :      245.113 s         245.116 s
  | Charge density update                      :      135.518 s         135.520 s
  | Density mixing & preconditioning           :       11.029 s          11.028 s
  | Hartree multipole update                   :        0.022 s           0.023 s
  | Hartree multipole summation                :       17.687 s          17.687 s
  | Integration                                :       79.950 s          79.951 s
  | Solution of K.-S. eqns.                    :        0.907 s           0.907 s
  | Total energy evaluation                    :        0.000 s           0.000 s

  Partial memory accounting:
  | Current value for overall tracked memory usage on task 0  :          50.632 MB
  | Peak value for overall tracked memory usage on task 0     :          87.983 MB after allocating wave
  | Largest tracked array allocation on task 0 so far         :          25.518 MB  when allocating hamiltonian_shell
  Note:  These values currently only include a subset of arrays which are explicitly tracked.
  The "true" memory usage will be greater.
------------------------------------------------------------

------------------------------------------------------------
          Begin self-consistency iteration #    2

  Date     :  20220223, Time     :  072442.952
------------------------------------------------------------
  Evaluating new KS density using the density matrix
  Evaluating density matrix
  Time summed over all CPUs for getting density from density matrix: real work      499.611 s, elapsed      499.611 s
  Integration grid: deviation in total charge (<rho> - N_e) =  -7.673862E-13
  Pulay mixing of updated and previous charge densities.

  Evaluating partitioned Hartree potential by multipole expansion.
  | Analytical far-field extrapolation by fixed multipoles:
  | Hartree multipole sum: apparent total charge =   0.157825E-01
  Summing up the Hartree potential.
  Time summed over all CPUs for potential: real work       74.595 s, elapsed       74.595 s
  | RMS charge density error from multipole expansion :   0.611761E-02
  | Average real-space part of the electrostatic potential :      0.22434788 eV

  Integrating Hamiltonian matrix: batch-based integration.
  Time summed over all CPUs for integration: real work      294.977 s, elapsed      294.977 s

[...]
  |   Free atom volume        :     76.98066615
  |   Hirshfeld volume        :     75.99329546
  |   Hirshfeld dipole vector :      0.00000000       0.00001298       0.00001227
  |   Hirshfeld dipole moment :      0.00001786
  |   Hirshfeld second moments:     -0.08087562      -0.00000000      -0.00000000
  |                                 -0.00000000      -0.08086796      -0.00005235
  |                                 -0.00000000      -0.00005235      -0.08085915
  ----------------------------------------------------------------------
  | Atom    13: Cl
  |   Hirshfeld charge        :     -0.24941134
  |   Free atom volume        :     66.13469196
  |   Hirshfeld volume        :     64.00175633
  |   Hirshfeld dipole vector :      0.00000000      -0.00000075       0.00002799
  |   Hirshfeld dipole moment :      0.00002800
  |   Hirshfeld second moments:     -0.01812700       0.00000000       0.00000000
  |                                  0.00000000      -0.01808017      -0.00000470
  |                                  0.00000000      -0.00000470      -0.01808978
  ----------------------------------------------------------------------

  | Many-Body Dispersion (MBD@rsSCS) energy
  | Total dynamic anisotropic polarizability, \alpha_{ij}(iu), (a.u.)
  | -------------------------------------------------------------------
  |      u            xx         yy         zz         yz         xz         xy
  |   0.000000    602.726    602.730    602.728      0.003      0.000      0.000
   Negative alpha! Aborting this iteration
  | --------------------------------------------------------------

  Total energy components:
  | Sum of eigenvalues            :       -1632.29728613 Ha      -44417.06907132 eV
  | XC energy correction          :        -190.54105227 Ha       -5184.88583630 eV
  | XC potential correction       :         246.15687541 Ha        6698.26938407 eV
  | Free-atom electrostatic energy:       -1256.87803685 Ha      -34201.39153037 eV
  | Hartree energy correction     :          -3.69404118 Ha        -100.51997495 eV
  | Entropy correction            :          -0.00000000 Ha          -0.00000000 eV
  | ---------------------------
  | Total energy                  :       -2837.25354103 Ha      -77205.59702887 eV
  | Total energy, T -> 0          :       -2837.25354103 Ha      -77205.59702887 eV  <-- do not rely on this value for anything but (periodic) metals
  | Electronic free energy        :       -2837.25354103 Ha      -77205.59702887 eV

  Derived energy quantities:
  | Kinetic energy                :        2833.46096088 Ha       77102.39567235 eV
  | Electrostatic energy          :       -5480.17344964 Ha     -149123.10686492 eV
  | Energy correction for multipole
  | error in Hartree potential    :          -0.01845112 Ha          -0.50208053 eV
  | Sum of eigenvalues per atom                           :       -3416.69762087 eV
  | Total energy (T->0) per atom                          :       -5938.89207914 eV  <-- do not rely on this value for anything but (periodic) metals
  | Electronic free energy per atom                       :       -5938.89207914 eV

  atomic forces [eV/Ang]:
  -----------------------
  atom #    1
   Hellmann-Feynman              : -0.577884E-01 -0.337327E-01  0.473456E-01
   Ionic forces                  :  0.000000E+00  0.000000E+00  0.000000E+00
   Multipole                     : -0.642823E-02 -0.357836E-02  0.517058E-02
   Pulay + GGA                   :  0.649523E-01  0.377006E-01 -0.530573E-01
   Van der Waals                 :  0.000000E+00  0.000000E+00  0.000000E+00
   ----------------------------------------------------------------
   Total forces(   1)            :  0.735694E-03  0.389624E-03 -0.541192E-03
  atom #    2
   Hellmann-Feynman              :  0.572929E-01  0.334971E-01 -0.472640E-01
   Ionic forces                  :  0.000000E+00  0.000000E+00  0.000000E+00
   Multipole                     :  0.637561E-02  0.342114E-02 -0.518501E-02
   Pulay + GGA                   : -0.643417E-01 -0.373232E-01  0.529775E-01
   Van der Waals                 :  0.000000E+00  0.000000E+00  0.000000E+00
   ----------------------------------------------------------------
   Total forces(   2)            : -0.673116E-03 -0.404896E-03  0.528489E-03
  atom #    3
   Hellmann-Feynman              :  0.577883E-01 -0.337327E-01  0.473455E-01
   Ionic forces                  :  0.000000E+00  0.000000E+00  0.000000E+00
   Multipole                     :  0.642823E-02 -0.357835E-02  0.517058E-02
   Pulay + GGA                   : -0.649523E-01  0.377007E-01 -0.530574E-01
   Van der Waals                 :  0.000000E+00  0.000000E+00  0.000000E+00
   ----------------------------------------------------------------
   Total forces(   3)            : -0.735816E-03  0.389633E-03 -0.541269E-03
  atom #    4
   Hellmann-Feynman              : -0.572931E-01  0.334972E-01 -0.472640E-01
   Ionic forces                  :  0.000000E+00  0.000000E+00  0.000000E+00
   Multipole                     : -0.637561E-02  0.342113E-02 -0.518502E-02
   Pulay + GGA                   :  0.643417E-01 -0.373232E-01  0.529775E-01
   Van der Waals                 :  0.000000E+00  0.000000E+00  0.000000E+00
   ----------------------------------------------------------------
   Total forces(   4)            :  0.672994E-03 -0.404826E-03  0.528453E-03
  atom #    5
   Hellmann-Feynman              :  0.567496E-08 -0.671793E-01 -0.470841E-01
   Ionic forces                  :  0.000000E+00  0.000000E+00  0.000000E+00
   Multipole                     : -0.225526E-08 -0.730481E-02 -0.513695E-02
   Pulay + GGA                   : -0.375834E-08  0.752723E-01  0.527784E-01
   Van der Waals                 :  0.000000E+00  0.000000E+00  0.000000E+00
   ----------------------------------------------------------------
   Total forces(   5)            : -0.338645E-09  0.788141E-03  0.557349E-03
  atom #    6
   Hellmann-Feynman              : -0.803263E-07  0.670484E-01  0.478962E-01
   Ionic forces                  :  0.000000E+00  0.000000E+00  0.000000E+00
   Multipole                     :  0.657200E-08  0.737122E-02  0.500160E-02
   Pulay + GGA                   :  0.222263E-07 -0.751370E-01 -0.535358E-01
   Van der Waals                 :  0.000000E+00  0.000000E+00  0.000000E+00
   ----------------------------------------------------------------
   Total forces(   6)            : -0.515280E-07 -0.717440E-03 -0.637927E-03
  atom #    7
   Hellmann-Feynman              : -0.890512E-06 -0.142087E-02 -0.743386E-04
   Ionic forces                  :  0.000000E+00  0.000000E+00  0.000000E+00
   Multipole                     : -0.602861E-07  0.120050E-02  0.286118E-03
   Pulay + GGA                   :  0.818077E-07  0.241740E-03 -0.320129E-03
   Van der Waals                 :  0.000000E+00  0.000000E+00  0.000000E+00
   ----------------------------------------------------------------
   Total forces(   7)            : -0.868990E-06  0.213694E-04 -0.108349E-03
  atom #    8
   Hellmann-Feynman              : -0.122449E+02  0.706999E+01  0.499784E+01
   Ionic forces                  :  0.000000E+00  0.000000E+00  0.000000E+00
   Multipole                     :  0.289100E+00 -0.166172E+00 -0.117876E+00
   Pulay + GGA                   :  0.116031E+02 -0.670004E+01 -0.473594E+01
   Van der Waals                 :  0.000000E+00  0.000000E+00  0.000000E+00
   ----------------------------------------------------------------
   Total forces(   8)            : -0.352732E+00  0.203781E+00  0.144027E+00
  atom #    9
   Hellmann-Feynman              : -0.127840E-06 -0.149104E-02 -0.150006E+02
   Ionic forces                  :  0.000000E+00  0.000000E+00  0.000000E+00
   Multipole                     : -0.858552E-08  0.134848E-02  0.355018E+00
   Pulay + GGA                   :  0.334219E-06  0.217760E-03  0.142133E+02
   Van der Waals                 :  0.000000E+00  0.000000E+00  0.000000E+00
   ----------------------------------------------------------------
   Total forces(   9)            :  0.197793E-06  0.752020E-04 -0.432192E+00
  atom #   10
   Hellmann-Feynman              : -0.128423E-06 -0.141454E+02  0.500204E+01
   Ionic forces                  :  0.000000E+00  0.000000E+00  0.000000E+00
   Multipole                     : -0.887851E-08  0.336252E+00 -0.117094E+00
   Pulay + GGA                   :  0.332960E-06  0.134023E+02 -0.474099E+01
   Van der Waals                 :  0.000000E+00  0.000000E+00  0.000000E+00
   ----------------------------------------------------------------
   Total forces(  10)            :  0.195658E-06 -0.406826E+00  0.143955E+00
  atom #   11
   Hellmann-Feynman              :  0.122449E+02  0.706999E+01  0.499784E+01
   Ionic forces                  :  0.000000E+00  0.000000E+00  0.000000E+00
   Multipole                     : -0.289100E+00 -0.166172E+00 -0.117876E+00
   Pulay + GGA                   : -0.116031E+02 -0.670004E+01 -0.473594E+01
   Van der Waals                 :  0.000000E+00  0.000000E+00  0.000000E+00
   ----------------------------------------------------------------
   Total forces(  11)            :  0.352732E+00  0.203781E+00  0.144027E+00
  atom #   12
   Hellmann-Feynman              : -0.243710E-06 -0.505870E-03  0.235687E-02
   Ionic forces                  :  0.000000E+00  0.000000E+00  0.000000E+00
   Multipole                     :  0.613776E-08  0.416998E-03 -0.199383E-02
   Pulay + GGA                   :  0.200535E-06  0.171972E-03 -0.409993E-03
   Van der Waals                 :  0.000000E+00  0.000000E+00  0.000000E+00
   ----------------------------------------------------------------
   Total forces(  12)            : -0.370365E-07  0.830993E-04 -0.469452E-04
  atom #   13
   Hellmann-Feynman              : -0.293053E-06  0.230679E-03 -0.194462E-02
   Ionic forces                  :  0.000000E+00  0.000000E+00  0.000000E+00
   Multipole                     :  0.117094E-09  0.845925E-05 -0.125642E-04
   Pulay + GGA                   :  0.266152E-06 -0.308876E-03  0.188756E-02
   Van der Waals                 :  0.000000E+00  0.000000E+00  0.000000E+00
   ----------------------------------------------------------------
   Total forces(  13)            : -0.267845E-07 -0.697370E-04 -0.696180E-04

  Timings for VdW correction (Tkatchenko-Scheffler 2009 or later):
  | CPU time:       72.796 s, Wall clock time:       72.837 s.
  Removing unitary transformations (pure translations, rotations) from forces on atoms.
  Atomic forces before filtering:
  | Net force on center of mass :  -0.192497E-07  0.886000E-03 -0.512706E-03 eV/A
  Atomic forces after filtering:
  | Net force on center of mass :  -0.656421E-16  0.376761E-17  0.264386E-16 eV/A

  Energy and forces in a compact form:
  | Total energy uncorrected      :         -0.772055970288654E+05 eV
  | Total energy corrected        :         -0.772055970288654E+05 eV  <-- do not rely on this value for anything but (periodic) metals
  | Electronic free energy        :         -0.772055970288654E+05 eV
  Total atomic forces (unitary forces cleaned) [eV/Ang]:
  |   1          0.735695658116601E-03          0.321469635278146E-03         -0.501753008170074E-03
  |   2         -0.673114215915765E-03         -0.473049522956978E-03          0.567927528941845E-03
  |   3         -0.735814492764526E-03          0.321479507271156E-03         -0.501830371999038E-03
  |   4          0.672994991760576E-03         -0.472979768000699E-03          0.567892398743195E-03
  |   5          0.114210192772394E-08          0.719987232915848E-03          0.596787700508916E-03
  |   6         -0.500472818766615E-07         -0.785593794156944E-03         -0.598487904811560E-03
  |   7         -0.867509360672926E-06         -0.467844490495435E-04         -0.689103623307656E-04
  |   8         -0.352731594679123E+00          0.203712778533374E+00          0.144066620362512E+00
  |   9          0.199274181841539E-06          0.704811646939263E-05         -0.432152232215040E+00
  |  10          0.197138922335603E-06         -0.406894421439470E+00          0.143994885618112E+00
  |  11          0.352732413598818E+00          0.203713011348554E+00          0.144066785605459E+00
  |  12         -0.355557385181181E-07          0.149454597871265E-04         -0.750627836710279E-05
  |  13         -0.253037165854994E-07         -0.137890860015246E-03         -0.301790735590838E-04

  ------------------------------------ 
  Start decomposition of the XC Energy 
  ------------------------------------ 
  X and C from original XC functional choice 
  Hartree-Fock Energy :          0.000000000 Ha              0.000000000 eV
  X Energy            :       -185.686675907 Ha          -5052.791534638 eV
  C Energy            :         -4.854376361 Ha           -132.094301658 eV
  Total XC Energy     :       -190.541052268 Ha          -5184.885836295 eV
  ------------------------------------ 
  LDA X and C from self-consistent density 
  X Energy LDA        :       -171.763642103 Ha          -4673.926508397 eV
  C Energy LDA        :         -9.789455839 Ha           -266.384646871 eV
  ------------------------------------ 
  End decomposition of the XC Energy 
  ------------------------------------ 

------------------------------------------------------------

------------------------------------------------------------------------------
  Final output of selected total energy values:

  The following output summarizes some interesting total energy values
  at the end of a run (AFTER all relaxation, molecular dynamics, etc.).

  | Total energy of the DFT / Hartree-Fock s.c.f. calculation      :         -77205.597028865 eV
  | Final zero-broadening corrected energy (caution - metals only) :         -77205.597028865 eV
  | For reference only, the value of 1 Hartree used in FHI-aims is :             27.211384500 eV

  Before relying on these values, please be sure to understand exactly which
  total energy value is referred to by a given number. Different objects may
  all carry the same name 'total energy'. Definitions:

  Total energy of the DFT / Hartree-Fock s.c.f. calculation:
  | Note that this energy does not include ANY quantities calculated after the
  | s.c.f. cycle, in particular not ANY RPA, MP2, etc. many-body perturbation terms.

  Final zero-broadening corrected energy:
  | For metallic systems only, a broadening of the occupation numbers at the Fermi
  | level can be extrapolated back to zero broadening by an electron-gas inspired
  | formula. For all systems that are not real metals, this value can be
  | meaningless and should be avoided.

------------------------------------------------------------------------------
  Methods described in the following list of references were used in this FHI-aims run.
  If you publish the results, please make sure to cite these reference if they apply.
  FHI-aims is an academic code, and for our developers (often, Ph.D. students
  and postdocs), scientific credit in the community is essential.
  Thank you for helping us!

  For any use of FHI-aims, please cite:

    Volker Blum, Ralf Gehrke, Felix Hanke, Paula Havu, Ville Havu,
    Xinguo Ren, Karsten Reuter, and Matthias Scheffler
    'Ab initio molecular simulations with numeric atom-centered orbitals'
    Computer Physics Communications 180, 2175-2196 (2009)
    http://dx.doi.org/10.1016/j.cpc.2009.06.022


  The provided symmetry information was generated with SPGlib:

    Atsushi Togo, Yusuke Seto, Dimitar Pashov
    SPGlib 1.7.3 obtained from http://spglib.sourceforge.net
    Copyright (C) 2008 Atsushi Togo


  The scalable eigensolver library ELPA was used in your run.
  ELPA is essential especially for large systems on hundreds or thousands of CPUs.
  For ELPA, please cite:

    Andreas Marek, Volker Blum, Rainer Johanni, Ville Havu, Bruno Lang,
    Thomas Auckenthaler, Alexander Heinecke, Hans-Joachim Bungartz, and Hermann Lederer,
    'The ELPA Library - Scalable Parallel Eigenvalue Solutions
    for Electronic Structure Theory and Computational Science'
    The Journal of Physics: Condensed Matter 26, 213201 (2014).
    http://dx.doi.org/10.1088/0953-8984/26/21/213201


  The ELSI infrastructure was used in your run to solve the Kohn-Sham electronic structure.
  Please check out http://elsi-interchange.org to learn more.
  If scalability is important for your project, please acknowledge ELSI by citing:

    V. W-z. Yu, F. Corsetti, A. Garcia, W. P. Huhn, M. Jacquelin, W. Jia,
    B. Lange, L. Lin, J. Lu, W. Mi, A. Seifitokaldani, A. Vazquez-Mayagoitia,
    C. Yang, H. Yang, and V. Blum
    'ELSI: A unified software interface for Kohn-Sham electronic structure solvers'
    Computer Physics Communications 222, 267-285 (2018).
    http://dx.doi.org/10.1016/j.cpc.2017.09.007


  For the real-space grid partitioning and parallelization used in this calculation, please cite:

    Ville Havu, Volker Blum, Paula Havu, and Matthias Scheffler,
    'Efficient O(N) integration for all-electron electronic structure calculation'
    'using numerically tabulated basis functions'
    Journal of Computational Physics 228, 8367-8379 (2009).
    http://dx.doi.org/10.1016/j.jcp.2009.08.008

  Of course, there are many other important community references, e.g., those cited in the
  above references. Our list is limited to references that describe implementations in the
  FHI-aims code. The reason is purely practical (length of this list) - please credit others as well.

------------------------------------------------------------
          Leaving FHI-aims.
          Date     :  20220223, Time     :  090103.964

          Computational steps:
          | Number of self-consistency cycles          :           19
          | Number of SCF (re)initializations          :            1

          Detailed time accounting                     :  max(cpu_time)    wall_clock(cpu1)
          | Total time                                 :     6193.196 s        6195.169 s
          | Preparation time                           :        0.317 s           0.317 s
          | Boundary condition initalization           :        0.488 s           0.488 s
          | Grid partitioning                          :        2.942 s           2.942 s
          | Preloading free-atom quantities on grid    :        0.014 s           0.014 s
          | Free-atom superposition energy             :        2.104 s           2.104 s
          | Total time for integrations                :     1671.271 s        1671.521 s
          | Total time for solution of K.-S. equations :       18.550 s          18.554 s
          | Total time for density & force components  :     3690.866 s        3692.448 s
          | Total time for mixing & preconditioning    :      186.070 s         186.081 s
          | Total time for Hartree multipole update    :        0.469 s           0.468 s
          | Total time for Hartree multipole sum       :      529.879 s         529.925 s
          | Total time for total energy evaluation     :        0.003 s           0.002 s
          | Total time for vdW correction              :       72.796 s          72.837 s

          Partial memory accounting:
          | Residual value for overall tracked memory usage across tasks :           0.000 MB (should be 0.000 MB)
          | Peak values for overall tracked memory usage (after allocating wave_pulay):
          |   Minimum:      114.443 MB (on task 1)
          |   Maximum:      114.443 MB (on task 1)
          |   Average:      114.443 MB
          | Largest tracked array allocation (hamiltonian_shell):
          |   Minimum:       25.518 MB (on task 1)
          |   Maximum:       25.518 MB (on task 1)
          |   Average:       25.518 MB
          Note:  These values currently only include a subset of arrays which are explicitly tracked.
          The "true" memory usage will be greater.

          Have a nice day.
------------------------------------------------------------
