  MPI-parallelism will be employed.
------------------------------------------------------------
          Invoking FHI-aims ...
          Version 171221_1
          Compiled on 2020/11/22 at 19:48:33 on host core401.

          When using FHI-aims, please cite the following reference:

          Volker Blum, Ralf Gehrke, Felix Hanke, Paula Havu,
          Ville Havu, Xinguo Ren, Karsten Reuter, and Matthias Scheffler,
          'Ab Initio Molecular Simulations with Numeric Atom-Centered Orbitals',
          Computer Physics Communications 180, 2175-2196 (2009)

          For any questions about FHI-aims, please visit the aimsclub website
          with its forums and wiki. Contributions to both the forums and the
          wiki are warmly encouraged - they are for you, and everyone is welcome there.

------------------------------------------------------------



  Date     :  20220223, Time     :  140351.188
  Time zero on CPU 1             :   0.267330000000000E-01  s.
  Internal wall clock time zero  :           414857031.188  s.

  FHI-aims created a unique identifier for this run for later identification
  aims_uuid : 7F5758AA-440B-4C41-A265-2A5FB8BE121F

  Using        1 parallel tasks.
  Task        0 on host core401 reporting.

  Performing system and environment tests:
  *** Environment variable OMP_NUM_THREADS is not set
  *** For performance reasons you might want to set it to 1
  | Maximum stacksize for task 0: unlimited
  | Current stacksize for task 0: unlimited
  | Checking for scalapack...
  | Testing pdtran()...
  | All pdtran() tests passed.

  Obtaining array dimensions for all initial allocations:
  
  -----------------------------------------------------------------------
  Parsing control.in (first pass over file, find array dimensions only).
  The contents of control.in will be repeated verbatim below
  unless switched off by setting 'verbatim_writeout .false.' .
  in the first line of control.in .
  -----------------------------------------------------------------------
  
  #===============================================================================
  # FHI-aims file: ./control.in
  # Created using the Atomic Simulation Environment (ASE)
  # Wed Mar 24 12:41:28 2021
  #===============================================================================
  xc                                 pbe
  # relax_geometry                     bfgs 1e-4
  sc_accuracy_etot                   1e-06
  sc_accuracy_eev                    0.001
  sc_accuracy_rho                    1e-06
  sc_accuracy_forces                 0.0001
  many_body_dispersion
  k_grid                             3 3 3
  
    #output band 0.0   0.0   0.0   0.5   0.5   0.0    10  Gamma M
    #output band 0.5   0.5   0.0   0.5   0.5   0.5    10  M     R
    #output band 0.5   0.5   0.5   0.0   0.5   0.0    10  R     X
  
    #output  dos              -18. 10. 200 0.1
    #output  species_proj_dos -18. 10. 200 0.1
  
  #===============================================================================
  
  ################################################################################
  #
  #  FHI-aims code project
  # Volker Blum, Fritz Haber Institute Berlin, 2009
  #
  #  Suggested "tight" defaults for Li atom (to be pasted into control.in file)
  #
  #  2016/03/22: Increased cutoff radius to 5.0 AA (Xinguo Ren, Aug 15, 2015)
  #
  ################################################################################
    species        Li
  #     global species definitions
      nucleus             3
      mass                6.941
  #
      l_hartree           6
  #
      cut_pot             5.0  2.0  1.0
      basis_dep_cutoff    1e-4
  #
      radial_base         29 7.0
      radial_multiplier   2
      angular_grids       specified
        division   0.4484  110
        division   0.5659  194
        division   0.6315  302
        division   0.6662  434
  #      division   0.8186  590
  #      division   0.9037  770
  #      division   6.2760  974
  #      outer_grid   974
        outer_grid  434
  ################################################################################
  #
  #  Definition of "minimal" basis
  #
  ################################################################################
  #     valence basis states
      valence      2  s   1.
  #     ion occupancy
      ion_occ      1  s   2.
  ################################################################################
  #
  #  Suggested additional basis functions. For production calculations,
  #  uncomment them one after another (the most important basis functions are
  #  listed first).
  #
  #  Constructed for dimers: 1.80 A, 2.25 A, 2.75 A, 3.50 A, 4.50 A
  #
  ################################################################################
  #  "First tier" - improvements: -189.23 meV to -6.35 meV
       hydro 2 p 1.6
       hydro 2 s 2
       hydro 3 d 2.6
  #  "Second tier" - improvements: -4.69 meV to -0.41 meV
       hydro 3 p 4.6
       hydro 2 p 1.8
       hydro 3 s 6.2
       hydro 4 d 4.7
       hydro 4 f 4.1
  #  "Third tier" - improvements: -0.20 meV to -0.15 meV
  #     hydro 4 d 0.95
  #     hydro 3 p 6.2
  #     hydro 3 s 1.7
  #  Further functions, listed for completeness
  #     VB: The following functions are only listed for completeness; test very
  #         carefully before any kind of production use. From the point of view
  #         of the basis construction, their main role is to fill up space,
  #         and they are solely determined by the location of the cutoff potential.
  #     hydro 3 p 0.1  # -0.15 meV
  #     hydro 4 d 5    # -0.12 meV
  #     hydro 4 f 0.1  # -0.14 meV
  #     hydro 5 g 0.1  # -0.06 meV
  
  
  ################################################################################
  #
  # For methods that use the localized form of the "resolution of identity" for
  # the two-electron Coulomb operator (RI_method LVL), particularly Hartree-Fock and
  # hybrid density functional calculations, the highest accuracy can be obtained by
  # uncommenting the line beginning with "for_aux"  below, thus adding an extra g radial
  # function to the construction of the product basis set for the expansion.
  # See Ref. New J. Phys. 17, 093020 (2015) for more information, particularly Figs. 1 and 6.
  #
  ################################################################################
  #
  # for_aux hydro 5 g 6.0
  ################################################################################
  #
  #  FHI-aims code project
  # Volker Blum, Fritz Haber Institute Berlin, 2010
  #
  #  Suggested "tight" defaults for P atom (to be pasted into control.in file)
  #
  #  Revised Jan 04, 2011, following tests (SiC) done by Lydia Nemec:
  #     d function of tier 2 now enabled by default.
  #
  ################################################################################
    species        P
  #     global species definitions
      nucleus             15
      mass                30.973762
  #
      l_hartree           6
  #
      cut_pot             4.0          2.0  1.0
      basis_dep_cutoff    1e-4
  #
      radial_base         43 7.0
      radial_multiplier   2
      angular_grids       specified
        division   0.2995   50
        division   0.5998  110
        division   0.9240  194
        division   1.0921  302
        division   1.2863  434
  #      division   1.3165  590
  #      division   1.4113  770
  #      division   1.5128  974
  #      division   2.4980 1202
        outer_grid  434
  ################################################################################
  #
  #  Definition of "minimal" basis
  #
  ################################################################################
  #     valence basis states
      valence      3  s   2.
      valence      3  p   3.
  #     ion occupancy
      ion_occ      3  s   1.
      ion_occ      3  p   2.
  ################################################################################
  #
  #  Suggested additional basis functions. For production calculations,
  #  uncomment them one after another (the most important basis functions are
  #  listed first).
  #
  #  Constructed for dimers: 1.625 A, 1.875 A, 2.5 A, 3.25 A, 4.0 A
  #
  ################################################################################
  #  "First tier" - improvements: -726.20 meV to -35.91 meV
       ionic 3 d auto
       ionic 3 p auto
       hydro 4 f 6.2
       hydro 5 g 8.6
       ionic 3 s auto
  #  "Second tier" - improvements: -16.02 meV to -1.71 meV
       hydro 4 d 6.2
  #     hydro 4 p 9.2
  #     hydro 5 f 9.8
  #     hydro 1 s 0.7
  #     hydro 5 g 13.2
  #  "Third tier" - improvements: -1.82 meV to -0.20 meV
  #     hydro 3 p 2.5
  #     hydro 4 d 6.4
  #     hydro 5 f 11.2
  #     hydro 2 s 1.5
  #  "Fourth tier" - improvements: -0.91 meV to -0.17 meV
  #     hydro 3 d 16.8
  #     hydro 5 g 18
  #     hydro 4 p 4.5
  #     hydro 3 s 2.1
  #  Further basis functions that fell out of the optimization - < -0.09 meV
  #     hydro 4 p 10.4
  #     hydro 4 d 17.6
  #     hydro 4 s 11.2
  ################################################################################
  #
  # For methods that use the localized form of the "resolution of identity" for
  # the two-electron Coulomb operator (RI_method LVL), particularly Hartree-Fock and
  # hybrid density functional calculations, the highest accuracy can be obtained by
  # uncommenting the line beginning with "for_aux"  below, thus adding an extra g radial
  # function to the construction of the product basis set for the expansion.
  # See Ref. New J. Phys. 17, 093020 (2015) for more information, particularly Figs. 1 and 6.
  #
  ################################################################################
  #
  # for_aux hydro 5 g 6.0
  ################################################################################
  #
  #  FHI-aims code project
  # Volker Blum, Fritz Haber Institute Berlin, 2009
  #
  #  Suggested "tight" defaults for S atom (to be pasted into control.in file)
  #
  #  Revised Jan 04, 2011, following tests (SiC) done by Lydia Nemec:
  #     d and g functions of tier 2 now enabled by default.
  #
  ################################################################################
    species        S
  #     global species definitions
      nucleus             16
      mass                32.065
  #
      l_hartree           6
  #
      cut_pot             4.0          2.0  1.0
      basis_dep_cutoff    1e-4
  #
      radial_base         44 7.0
      radial_multiplier   2
      angular_grids       specified
        division   0.4665  110
        division   0.5810  194
        division   0.7139  302
        division   0.8274  434
  #      division   0.9105  590
  #      division   1.0975  770
  #      division   1.2028  974
  #      outer_grid  974
        outer_grid  434
  ################################################################################
  #
  #  Definition of "minimal" basis
  #
  ################################################################################
  #     valence basis states
      valence      3  s   2.
      valence      3  p   4.
  #     ion occupancy
      ion_occ      3  s   1.
      ion_occ      3  p   3.
  ################################################################################
  #
  #  Suggested additional basis functions. For production calculations,
  #  uncomment them one after another (the most important basis functions are
  #  listed first).
  #
  #  Constructed for dimers: 1.6 A, 1.9 A, 2.5 A, 3.25 A, 4.0 A
  #
  ################################################################################
  #  "First tier" - improvements: -652.81 meV to -45.53 meV
       ionic 3 d auto
       hydro 2 p 1.8
       hydro 4 f 7
       ionic 3 s auto
  #  "Second tier" - improvements: -30.20 meV to -1.74 meV
       hydro 4 d 6.2
       hydro 5 g 10.8
  #     hydro 4 p 4.9
  #     hydro 5 f 10
  #     hydro 1 s 0.8
  #  "Third tier" - improvements: -1.04 meV to -0.20 meV
  #     hydro 3 d 3.9
  #     hydro 3 d 2.7
  #     hydro 5 g 12
  #     hydro 4 p 10.4
  #     hydro 5 f 12.4
  #     hydro 2 s 1.9
  #  "Fourth tier" - improvements: -0.35 meV to -0.06 meV
  #     hydro 4 d 10.4
  #     hydro 4 p 7.2
  #     hydro 4 d 10
  #     hydro 5 g 19.2
  #     hydro 4 s 12
  
  ################################################################################
  #
  # For methods that use the localized form of the "resolution of identity" for
  # the two-electron Coulomb operator (RI_method LVL), particularly Hartree-Fock and
  # hybrid density functional calculations, the highest accuracy can be obtained by
  # uncommenting the line beginning with "for_aux"  below, thus adding an extra g radial
  # function to the construction of the product basis set for the expansion.
  # See Ref. New J. Phys. 17, 093020 (2015) for more information, particularly Figs. 1 and 6.
  #
  ################################################################################
  #
  # for_aux hydro 5 g 6.0
  ################################################################################
  #
  #  FHI-aims code project
  # Volker Blum, Fritz Haber Institute Berlin, 2009
  #
  #  Suggested "tight" defaults for Cl atom (to be pasted into control.in file)
  #
  #  Revised Jan 04, 2011, following tests (SiC) done by Lydia Nemec:
  #     d function of tier 2 now enabled by default.
  #
  ################################################################################
    species        Cl
  #     global species definitions
      nucleus             17
      mass                35.453
  #
      l_hartree           6
  #
      cut_pot             4.0          2.0  1.0
      basis_dep_cutoff    1e-4
  #
      radial_base         45 7.0
      radial_multiplier   2
      angular_grids       specified
        division   0.4412  110
        division   0.5489  194
        division   0.6734  302
        division   0.7794  434
  #      division   0.9402  590
  #      division   1.0779  770
  #      division   1.1792  974
  #      outer_grid  974
        outer_grid  434
  ################################################################################
  #
  #  Definition of "minimal" basis
  #
  ################################################################################
  #     valence basis states
      valence      3  s   2.
      valence      3  p   5.
  #     ion occupancy
      ion_occ      3  s   1.
      ion_occ      3  p   4.
  ################################################################################
  #
  #  Suggested additional basis functions. For production calculations,
  #  uncomment them one after another (the most important basis functions are
  #  listed first).
  #
  #  Constructed for dimers: 1.65 A, 2.0 A, 2.5 A, 3.25 A, 4.0 A
  #
  ################################################################################
  #  "First tier" - improvements: -429.57 meV to -15.03 meV
       ionic 3 d auto
       hydro 2 p 1.9
       hydro 4 f 7.4
       ionic 3 s auto
       hydro 5 g 10.4
  #  "Second tier" - improvements: -7.84 meV to -0.48 meV
       hydro 3 d 3.3
  #     hydro 5 f 9.8
  #     hydro 1 s 0.75
  #     hydro 5 g 11.2
  #     hydro 4 p 10.4
  #  "Third tier" - improvements: -1.00 meV to -0.12 meV
  #     hydro 4 d 12.8
  #     hydro 4 f 4.6
  #     hydro 4 d 10.8
  #     hydro 2 s 1.8
  #     hydro 3 p 3
  #  Further functions that fell out - improvements: -0.10 meV and below
  #     hydro 5 f 14.4
  #     hydro 4 s 12.8
  #     hydro 3 d 11.6
  #     hydro 4 s 4.1
  ################################################################################
  #
  # For methods that use the localized form of the "resolution of identity" for
  # the two-electron Coulomb operator (RI_method LVL), particularly Hartree-Fock and
  # hybrid density functional calculations, the highest accuracy can be obtained by
  # uncommenting the line beginning with "for_aux"  below, thus adding an extra g radial
  # function to the construction of the product basis set for the expansion.
  # See Ref. New J. Phys. 17, 093020 (2015) for more information, particularly Figs. 1 and 6.
  #
  ################################################################################
  #
  # for_aux hydro 5 g 6.0
  
  
  -----------------------------------------------------------------------
  Completed first pass over input file control.in .
  -----------------------------------------------------------------------
  
  
  -----------------------------------------------------------------------
  Parsing geometry.in (first pass over file, find array dimensions only).
  The contents of geometry.in will be repeated verbatim below
  unless switched off by setting 'verbatim_writeout .false.' .
  in the first line of geometry.in .
  -----------------------------------------------------------------------
  
  #=======================================================
  # FHI-aims file: ./geo/geometry.in.8
  # Created using the Atomic Simulation Environment (ASE)
  # Tue Feb 22 23:54:07 2022
  #=======================================================
  lattice_vector 7.4867638222000004 0.0000000000000000 0.0000000000000000
  lattice_vector 3.7433819111000011 6.4837276621594819 0.0000000000000000
  lattice_vector 3.7433819111000011 2.1612425540531612 6.1129170630396930
  atom 2.0447325277725090 1.1805268753302420 2.9151706794418102 Li
  atom 5.4420312944274922 3.1419582327760800 0.1412878520780365 Li
  atom 5.4420312944274922 1.1805268753302420 2.9151706794418102 Li
  atom 2.0447325277725090 3.1419582327760800 0.1412878520780365 Li
  atom 3.7433819111000002 0.1998111966073228 0.1412878520780365 Li
  atom 3.7433819111000011 4.1226739114989988 2.9151706794418102 Li
  atom 7.4867638222000013 4.3224851081063216 3.0564585315198465 P
  atom 5.7569869455318639 5.3211722102638097 3.7626369537389488 S
  atom 7.4867637847661825 4.3224850864938968 0.9379232037333692 S
  atom 7.4867637847661825 2.3251108389540689 3.7626369537389488 S
  atom 9.2165406240005012 5.3211722102638097 3.7626369537389488 S
  atom 3.7433819111000006 2.1612425540531608 1.5282292657599232 S
  atom 0.0000000000000000 0.0000000000000000 0.0000000000000000 Cl
  
  -----------------------------------------------------------------------
  Completed first pass over input file geometry.in .
  -----------------------------------------------------------------------
  

  Basic array size parameters:
  | Number of species                 :        4
  | Number of atoms                   :       13
  | Number of lattice vectors         :        3
  | Max. basis fn. angular momentum   :        4
  | Max. atomic/ionic basis occupied n:        3
  | Max. number of basis fn. types    :        3
  | Max. radial fns per species/type  :        8
  | Max. logarithmic grid size        :     1362
  | Max. radial integration grid size :       91
  | Max. angular integration grid size:      434
  | Max. angular grid division number :        8
  | Radial grid for Hartree potential :     1362
  | Number of spin channels           :        1

------------------------------------------------------------
          Reading file control.in.
------------------------------------------------------------
  XC: Using PBE gradient-corrected functionals.
  Convergence accuracy of total energy:  0.1000E-05
  Convergence accuracy of sum of eigenvalues:  0.1000E-02
  Convergence accuracy of self-consistent charge density:  0.1000E-05
  Convergence accuracy of forces:  0.1000E-03
  Using the default MBD implementation with analytical forces
  Found k-point grid:         3         3         3
 
  Reading configuration options for species Li                  .
  | Found nuclear charge :   3.0000
  | Found atomic mass :    6.94100000000000      amu
  | Found l_max for Hartree potential  :   6
  | Found cutoff potl. onset [A], width [A], scale factor :    5.00000    2.00000    1.00000
  | Threshold for basis-dependent cutoff potential is   0.100000E-03
  | Found data for basic radial integration grid :    29 points, outermost radius =    7.000 A
  | Found multiplier for basic radial grid :   2
  | Found angular grid specification: user-specified.
  | Specified grid contains     5 separate shells.
  | Check grid settings after all constraints further below.
  | Found free-atom valence shell :  2 s   1.000
  | Found free-ion valence shell :  1 s   2.000
  | Found hydrogenic basis function :  2 p   1.600
  | Found hydrogenic basis function :  2 s   2.000
  | Found hydrogenic basis function :  3 d   2.600
  | Found hydrogenic basis function :  3 p   4.600
  | Found hydrogenic basis function :  2 p   1.800
  | Found hydrogenic basis function :  3 s   6.200
  | Found hydrogenic basis function :  4 d   4.700
  | Found hydrogenic basis function :  4 f   4.100
  Species Li                  : Missing cutoff potential type.
  Defaulting to exp(1/x)/(1-x)^2 type cutoff potential.
  Species Li: No 'logarithmic' tag. Using default grid for free atom:
  | Default logarithmic grid data [bohr] : 0.1000E-03 0.1000E+03 0.1012E+01
  Species Li: On-site basis accuracy parameter (for Gram-Schmidt orthonormalisation) not specified.
  Using default value basis_acc =  0.1000000E-03.
  Species Li                  : Using default innermost maximum threshold i_radial=  2 for radial functions.
  Species Li                  : Default cutoff onset for free atom density etc. : 0.50000000E+01 AA.
  Species Li                  : Basic radial grid will be enhanced according to radial_multiplier =   2, to contain    59 grid points.
 
  Reading configuration options for species P                   .
  | Found nuclear charge :  15.0000
  | Found atomic mass :    30.9737620000000      amu
  | Found l_max for Hartree potential  :   6
  | Found cutoff potl. onset [A], width [A], scale factor :    4.00000    2.00000    1.00000
  | Threshold for basis-dependent cutoff potential is   0.100000E-03
  | Found data for basic radial integration grid :    43 points, outermost radius =    7.000 A
  | Found multiplier for basic radial grid :   2
  | Found angular grid specification: user-specified.
  | Specified grid contains     6 separate shells.
  | Check grid settings after all constraints further below.
  | Found free-atom valence shell :  3 s   2.000
  | Found free-atom valence shell :  3 p   3.000
  | Found free-ion valence shell :  3 s   1.000
  | Found free-ion valence shell :  3 p   2.000
  | Found ionic basis function :  3 d , default cutoff radius.
  | Found ionic basis function :  3 p , default cutoff radius.
  | Found hydrogenic basis function :  4 f   6.200
  | Found hydrogenic basis function :  5 g   8.600
  | Found ionic basis function :  3 s , default cutoff radius.
  | Found hydrogenic basis function :  4 d   6.200
  Species P                   : Missing cutoff potential type.
  Defaulting to exp(1/x)/(1-x)^2 type cutoff potential.
  Species P : No 'logarithmic' tag. Using default grid for free atom:
  | Default logarithmic grid data [bohr] : 0.1000E-03 0.1000E+03 0.1012E+01
  | Will include ionic basis functions of  2.0-fold positive P                    ion.
  Species P : On-site basis accuracy parameter (for Gram-Schmidt orthonormalisation) not specified.
  Using default value basis_acc =  0.1000000E-03.
  Species P                   : Using default innermost maximum threshold i_radial=  2 for radial functions.
  Species P                   : Default cutoff onset for free atom density etc. : 0.40000000E+01 AA.
  Species P                   : Basic radial grid will be enhanced according to radial_multiplier =   2, to contain    87 grid points.
 
  Reading configuration options for species S                   .
  | Found nuclear charge :  16.0000
  | Found atomic mass :    32.0650000000000      amu
  | Found l_max for Hartree potential  :   6
  | Found cutoff potl. onset [A], width [A], scale factor :    4.00000    2.00000    1.00000
  | Threshold for basis-dependent cutoff potential is   0.100000E-03
  | Found data for basic radial integration grid :    44 points, outermost radius =    7.000 A
  | Found multiplier for basic radial grid :   2
  | Found angular grid specification: user-specified.
  | Specified grid contains     5 separate shells.
  | Check grid settings after all constraints further below.
  | Found free-atom valence shell :  3 s   2.000
  | Found free-atom valence shell :  3 p   4.000
  | Found free-ion valence shell :  3 s   1.000
  | Found free-ion valence shell :  3 p   3.000
  | Found ionic basis function :  3 d , default cutoff radius.
  | Found hydrogenic basis function :  2 p   1.800
  | Found hydrogenic basis function :  4 f   7.000
  | Found ionic basis function :  3 s , default cutoff radius.
  | Found hydrogenic basis function :  4 d   6.200
  | Found hydrogenic basis function :  5 g  10.800
  Species S                   : Missing cutoff potential type.
  Defaulting to exp(1/x)/(1-x)^2 type cutoff potential.
  Species S : No 'logarithmic' tag. Using default grid for free atom:
  | Default logarithmic grid data [bohr] : 0.1000E-03 0.1000E+03 0.1012E+01
  | Will include ionic basis functions of  2.0-fold positive S                    ion.
  Species S : On-site basis accuracy parameter (for Gram-Schmidt orthonormalisation) not specified.
  Using default value basis_acc =  0.1000000E-03.
  Species S                   : Using default innermost maximum threshold i_radial=  2 for radial functions.
  Species S                   : Default cutoff onset for free atom density etc. : 0.40000000E+01 AA.
  Species S                   : Basic radial grid will be enhanced according to radial_multiplier =   2, to contain    89 grid points.
 
  Reading configuration options for species Cl                  .
  | Found nuclear charge :  17.0000
  | Found atomic mass :    35.4530000000000      amu
  | Found l_max for Hartree potential  :   6
  | Found cutoff potl. onset [A], width [A], scale factor :    4.00000    2.00000    1.00000
  | Threshold for basis-dependent cutoff potential is   0.100000E-03
  | Found data for basic radial integration grid :    45 points, outermost radius =    7.000 A
  | Found multiplier for basic radial grid :   2
  | Found angular grid specification: user-specified.
  | Specified grid contains     5 separate shells.
  | Check grid settings after all constraints further below.
  | Found free-atom valence shell :  3 s   2.000
  | Found free-atom valence shell :  3 p   5.000
  | Found free-ion valence shell :  3 s   1.000
  | Found free-ion valence shell :  3 p   4.000
  | Found ionic basis function :  3 d , default cutoff radius.
  | Found hydrogenic basis function :  2 p   1.900
  | Found hydrogenic basis function :  4 f   7.400
  | Found ionic basis function :  3 s , default cutoff radius.
  | Found hydrogenic basis function :  5 g  10.400
  | Found hydrogenic basis function :  3 d   3.300
  Species Cl                  : Missing cutoff potential type.
  Defaulting to exp(1/x)/(1-x)^2 type cutoff potential.
  Species Cl: No 'logarithmic' tag. Using default grid for free atom:
  | Default logarithmic grid data [bohr] : 0.1000E-03 0.1000E+03 0.1012E+01
  | Will include ionic basis functions of  2.0-fold positive Cl                   ion.
  Species Cl: On-site basis accuracy parameter (for Gram-Schmidt orthonormalisation) not specified.
  Using default value basis_acc =  0.1000000E-03.
  Species Cl                  : Using default innermost maximum threshold i_radial=  2 for radial functions.
  Species Cl                  : Default cutoff onset for free atom density etc. : 0.40000000E+01 AA.
  Species Cl                  : Basic radial grid will be enhanced according to radial_multiplier =   2, to contain    91 grid points.
  | MBD: Using the same k-grid sampling as DFT
 
  Finished reading input file 'control.in'. Consistency checks are next.
 
  MPI_IN_PLACE appears to work with this MPI implementation.
  | Keeping use_mpi_in_place .true. (see manual).
  Target number of points in a grid batch is not set. Defaulting to  100
  Method for grid partitioning is not set. Defaulting to parallel hash+maxmin partitioning.
  Batch size limit is not set. Defaulting to    200
  By default, will store active basis functions for each batch.
  If in need of memory, prune_basis_once .false. can be used to disable this option.
  communication_type for Hartree potential was not specified.
  Defaulting to calc_hartree .
  Defaulting to Pulay charge density mixer.
  Pulay mixer: Number of relevant iterations not set.
  Defaulting to    8 iterations.
  Pulay mixer: Number of initial linear mixing iterations not set.
  Defaulting to    0 iterations.
  Work space size for distributed Hartree potential not set.
  Defaulting to   0.200000E+03 MB.
  Mixing parameter for charge density mixing has not been set.
  Using default: charge_mix_param =     0.0500.
  The mixing parameter will be adjusted in iteration number     2 of the first full s.c.f. cycle only.
  Algorithm-dependent basis array size parameters:
  | n_max_pulay                         :        8
  Maximum number of self-consistency iterations not provided.
  Presetting  1000 iterations.
  Presetting      1001 iterations before the initial mixing cycle
  is restarted anyway using the sc_init_iter criterion / keyword.
  Presetting a factor      1.000 between actual scf density residual
  and density convergence criterion sc_accuracy_rho below which sc_init_iter
  takes no effect.
  Geometry relaxation not requested: no relaxation will be performed.
  Handling of forces: Unphysical translation and rotation will be removed from forces.
  No accuracy limit for integral partition fn. given. Defaulting to  0.1000E-14.
  No threshold value for u(r) in integrations given. Defaulting to  0.1000E-05.
  No occupation type (smearing scheme) given. Defaulting to Gaussian broadening, width =  0.1000E-01 eV.
  The width will be adjusted in iteration number     2 of the first full s.c.f. cycle only.
  S.C.F. convergence parameters will be adjusted in iteration number     2 of the first full s.c.f. cycle only.
  No accuracy for occupation numbers given. Defaulting to  0.1000E-12.
  No threshold value for occupation numbers given. Defaulting to  0.0000E+00.
  No accuracy for fermi level given. Defaulting to  0.1000E-19.
  Maximum # of iterations to find E_F not set. Defaulting to  200.
  Preferred method for the eigenvalue solver ('KS_method') not specified in 'control.in'.
  Defaulting to serial version, 'lapack_fast'.
  Will not use alltoall communication since running on < 1024 CPUs.
  Threshold for basis singularities not set.
  Default threshold for basis singularities:  0.1000E-04
  partition_type (choice of integration weights) for integrals was not specified.
  | Using a version of the partition function of Stratmann and coworkers ('stratmann_smoother').
  | At each grid point, the set of atoms used to build the partition table is smoothly restricted to
  | only those atoms whose free-atom density would be non-zero at that grid point.
  Partitioning for Hartree potential was not defined. Using partition_type for integrals.
  | Adjusted default value of keyword multip_moments_threshold to:       0.10000000E-11
  | This value may affect high angular momentum components of the Hartree potential in periodic systems.
  Spin handling was not defined in control.in. Defaulting to unpolarized case.
  Angular momentum expansion for Kerker preconditioner not set explicitly.
  | Using default value of   0
  No explicit requirement for turning off preconditioner.
  | By default, it will be turned off when the charge convergence reaches
  | sc_accuracy_rho  =   0.100000E-05
  | sc_accuracy_eev  =   0.100000E-02
  | sc_accuracy_etot =   0.100000E-05
  No special mixing parameter while Kerker preconditioner is on.
  Using default: charge_mix_param =     0.0500.
  No q(lm)/r^(l+1) cutoff set for long-range Hartree potential.
  | Using default value of  0.100000E-09 .
  | Verify using the multipole_threshold keyword.
  Defaulting to new monopole extrapolation.
  Density update method: automatic selection selected.
  Using density matrix based charge density update.
  Using density matrix based charge density update.
  Using packed matrix style: index .
  Defaulting to use time-reversal symmetry for k-point grid.
------------------------------------------------------------


------------------------------------------------------------
          Reading geometry description geometry.in.
------------------------------------------------------------
 * Warning! You did not set the 'relativistic' flag in input file 'control.in'.
 * Since you are not attempting to treat any elements beyond Ca(Z=20), FHI-aims
 * will default to 'relativistic none'.
 * You must ensure that this is really what you want!!
 * For example, DO NOT compute total-energy differences between results from
 * different settings of the 'relativistic' flag.
  Input structure read successfully.
  The structure contains       13 atoms,  and a total of        130.000 electrons.

  Input geometry:
  | Unit cell:
  |        7.48676382        0.00000000        0.00000000
  |        3.74338191        6.48372766        0.00000000
  |        3.74338191        2.16124255        6.11291706
  | Atomic structure:
  |       Atom                x [A]            y [A]            z [A]
  |    1: Species Li            2.04473253        1.18052688        2.91517068
  |    2: Species Li            5.44203129        3.14195823        0.14128785
  |    3: Species Li            5.44203129        1.18052688        2.91517068
  |    4: Species Li            2.04473253        3.14195823        0.14128785
  |    5: Species Li            3.74338191        0.19981120        0.14128785
  |    6: Species Li            3.74338191        4.12267391        2.91517068
  |    7: Species P             7.48676382        4.32248511        3.05645853
  |    8: Species S             5.75698695        5.32117221        3.76263695
  |    9: Species S             7.48676378        4.32248509        0.93792320
  |   10: Species S             7.48676378        2.32511084        3.76263695
  |   11: Species S             9.21654062        5.32117221        3.76263695
  |   12: Species S             3.74338191        2.16124255        1.52822927
  |   13: Species Cl            0.00000000        0.00000000        0.00000000

  Lattice parameters for 3D lattice (in Angstroms) :     7.486764    7.486764    7.486764
  Angle(s) between unit vectors (in degrees)      :    60.000000   60.000000   60.000000

  |

  | The smallest distance between any two atoms is         2.11853527 AA.
  |
  | The first atom of this pair is atom number                     11 .
  | The second atom of this pair is atom number                     7 .
  | Wigner-Seitz cell of the first atom image           1     0     0 .
  | (The Wigner-Seitz cell of the second atom is 0 0 0  by definition.)

  Symmetry information by spglib:
  | Precision set to  0.1E-04
  | Number of Operations  : 24
  | Space group           : 216
  | International         : F-43m
  | Schoenflies           : Td^2

  Quantities derived from the lattice vectors:
  | Reciprocal lattice vector 1:  0.839239 -0.484535 -0.342618
  | Reciprocal lattice vector 2:  0.000000  0.969070 -0.342618
  | Reciprocal lattice vector 3:  0.000000 -0.000000  1.027854
  | Unit cell volume                               :   0.296734E+03  A^3

  Range separation radius for Ewald summation (hartree_convergence_parameter):      4.07943894 bohr.

  Fractional coordinates:
                         L1                L2                L3
       atom_frac         0.02311300        0.02311300        0.47688700  Li
       atom_frac         0.47688700        0.47688700        0.02311300  Li
       atom_frac         0.47688700        0.02311300        0.47688700  Li
       atom_frac         0.02311300        0.47688700        0.02311300  Li
       atom_frac         0.47688700        0.02311300        0.02311300  Li
       atom_frac         0.02311300        0.47688700        0.47688700  Li
       atom_frac         0.50000000        0.50000000        0.50000000  P
       atom_frac         0.15343300        0.61552233        0.61552233  S
       atom_frac         0.61552233        0.61552233        0.15343300  S
       atom_frac         0.61552233        0.15343300        0.61552233  S
       atom_frac         0.61552233        0.61552233        0.61552233  S
       atom_frac         0.25000000        0.25000000        0.25000000  S
       atom_frac         0.00000000        0.00000000        0.00000000  Cl

  Number of empty states per atom not set in control.in - providing a guess from actual geometry.
  | Total number of empty states used during s.c.f. cycle:       30
  If you use a very high smearing, use empty_states (per atom!) in control.in to increase this value.

  Structure-dependent array size parameters: 
  | Maximum number of distinct radial functions  :       43
  | Maximum number of basis functions            :      453
  | Number of Kohn-Sham states (occupied + empty):       95
------------------------------------------------------------

------------------------------------------------------------
          Preparing all fixed parts of the calculation.
------------------------------------------------------------
  Determining machine precision:
    2.225073858507201E-308
  Setting up grids for atomic and cluster calculations.

  Creating wave function, potential, and density for free atoms.

  Species: Li

  List of occupied orbitals and eigenvalues:
    n    l              occ      energy [Ha]    energy [eV]
    1    0           2.0000        -1.901473       -51.7417
    2    0           1.0000        -0.103132        -2.8064


  Species: P

  List of occupied orbitals and eigenvalues:
    n    l              occ      energy [Ha]    energy [eV]
    1    0           2.0000       -76.356288     -2077.7603
    2    0           2.0000        -6.358286      -173.0178
    3    0           2.0000        -0.509419       -13.8620
    2    1           6.0000        -4.573976      -124.4642
    3    1           3.0000        -0.201560        -5.4847


  Species: S

  List of occupied orbitals and eigenvalues:
    n    l              occ      energy [Ha]    energy [eV]
    1    0           2.0000       -88.108280     -2397.5483
    2    0           2.0000        -7.732485      -210.4116
    3    0           2.0000        -0.629532       -17.1304
    2    1           6.0000        -5.750324      -156.4743
    3    1           4.0000        -0.257562        -7.0086


  Species: Cl

  List of occupied orbitals and eigenvalues:
    n    l              occ      energy [Ha]    energy [eV]
    1    0           2.0000      -100.710795     -2740.4802
    2    0           2.0000        -9.222997      -250.9705
    3    0           2.0000        -0.754245       -20.5241
    2    1           6.0000        -7.039872      -191.5647
    3    1           5.0000        -0.316221        -8.6048

  Creating fixed part of basis set: Ionic, confined, hydrogenic.
 
  Li                   hydrogenic:
 
  List of hydrogenic basis orbitals: 
    n    l      effective z      eigenvalue [eV]  inner max. [A]     outer max. [A]     outer radius [A]   
    2    1         1.600000        -8.7048           1.319365           1.319365           6.386418
    2    0         2.000000       -13.6052           0.203259           1.385485           6.232164
    3    2         2.600000       -10.2084           1.835332           1.835332           6.386418
    3    1         4.600000       -31.9883           0.343834           1.385485           5.381805
    2    1         1.800000       -11.0199           1.181903           1.181903           6.386418
    3    0         6.200000       -58.1113           0.062858           1.111823           4.371906
    4    2         4.700000       -18.7772           0.761113           2.401695           6.386418
    4    3         4.100000       -14.2833           2.073992           2.073992           6.386418
 
 
  P                    ion:

  List of free ionic orbitals and eigenvalues:
    n    l      energy [Ha]    energy [eV]
    1    0       -77.297133     -2103.3620
    2    0        -7.273914      -197.9333
    3    0        -1.267536       -34.4914
    2    1        -5.491316      -149.4263
    3    1        -0.913470       -24.8568


  List of ionic basis orbitals and eigenvalues:
    n    l      energy [Ha]    energy [eV]    outer radius [A]
    3    2        -0.458060       -12.4644       5.404780
    3    1        -0.913461       -24.8565       4.724723
    3    0        -1.267529       -34.4912       4.232463

 
  P                    hydrogenic:
 
  List of hydrogenic basis orbitals: 
    n    l      effective z      eigenvalue [eV]  inner max. [A]     outer max. [A]     outer radius [A]   
    4    3         6.200000       -32.6870           1.357793           1.357793           5.339109
    5    4         8.600000       -40.2502           1.534356           1.534356           5.404780
    4    2         6.200000       -32.6848           0.577014           1.820771           5.404780
 
 
  S                    ion:

  List of free ionic orbitals and eigenvalues:
    n    l      energy [Ha]    energy [eV]
    1    0       -89.127201     -2425.2745
    2    0        -8.724378      -237.4024
    3    0        -1.464668       -39.8556
    2    1        -6.744348      -183.5230
    3    1        -1.048520       -28.5317


  List of ionic basis orbitals and eigenvalues:
    n    l      energy [Ha]    energy [eV]    outer radius [A]
    3    2        -0.496514       -13.5108       5.386362
    3    0        -1.464662       -39.8555       3.967934

 
  S                    hydrogenic:
 
  List of hydrogenic basis orbitals: 
    n    l      effective z      eigenvalue [eV]  inner max. [A]     outer max. [A]     outer radius [A]   
    2    1         1.800000       -11.0118           1.168531           1.168531           5.452614
    4    3         7.000000       -41.6672           1.212182           1.212182           5.066981
    4    2         6.200000       -32.6848           0.582121           1.814567           5.386362
    5    4        10.800000       -63.4785           1.227092           1.227092           4.766538
 
 
  Cl                   ion:

  List of free ionic orbitals and eigenvalues:
    n    l      energy [Ha]    energy [eV]
    1    0      -101.807232     -2770.3157
    2    0       -10.290876      -280.0290
    3    0        -1.664625       -45.2967
    2    1        -8.110237      -220.6908
    3    1        -1.183915       -32.2160


  List of ionic basis orbitals and eigenvalues:
    n    l      energy [Ha]    energy [eV]    outer radius [A]
    3    2        -0.529392       -14.4055       5.389057
    3    0        -1.664620       -45.2966       3.780461

 
  Cl                   hydrogenic:
 
  List of hydrogenic basis orbitals: 
    n    l      effective z      eigenvalue [eV]  inner max. [A]     outer max. [A]     outer radius [A]   
    2    1         1.900000       -12.2741           1.113321           1.113321           5.389057
    4    3         7.400000       -46.5653           1.140877           1.140877           4.886961
    5    4        10.400000       -58.8635           1.273568           1.273568           4.886961
    3    2         3.300000       -16.4532           1.439178           1.439178           5.455343
 

  Adding cutoff potential to free-atom effective potential.
  Creating atomic-like basis functions for current effective potential.

  Species Li                  :

  List of atomic basis orbitals and eigenvalues:
    n    l      energy [Ha]    energy [eV]    outer radius [A]
    1    0        -1.901473       -51.7417       4.318785
    2    0        -0.103132        -2.8064       6.464971


  Species P                   :

  List of atomic basis orbitals and eigenvalues:
    n    l      energy [Ha]    energy [eV]    outer radius [A]
    1    0       -76.356288     -2077.7603       0.736837
    2    0        -6.358286      -173.0178       2.532824
    3    0        -0.509419       -13.8620       5.274236
    2    1        -4.573976      -124.4642       2.862183
    3    1        -0.201560        -5.4847       5.404780


  Species S                   :

  List of atomic basis orbitals and eigenvalues:
    n    l      energy [Ha]    energy [eV]    outer radius [A]
    1    0       -88.108280     -2397.5483       0.682391
    2    0        -7.732485      -210.4116       2.317169
    3    0        -0.629532       -17.1304       5.256262
    2    1        -5.750324      -156.4743       2.555240
    3    1        -0.257562        -7.0086       5.386362


  Species Cl                  :

  List of atomic basis orbitals and eigenvalues:
    n    l      energy [Ha]    energy [eV]    outer radius [A]
    1    0      -100.710795     -2740.4802       0.642251
    2    0        -9.222997      -250.9705       2.128190
    3    0        -0.754245       -20.5241       5.194994
    2    1        -7.039872      -191.5647       2.346844
    3    1        -0.316221        -8.6048       5.323577

  Assembling full basis from fixed parts.
  | Species Li :   atomic orbital   1 s accepted.
  | Species Li :    hydro orbital   3 s accepted.
  | Species Li :    hydro orbital   2 s accepted.
  | Species Li :   atomic orbital   2 s accepted.
  | Species Li :    hydro orbital   3 p accepted.
  | Species Li :    hydro orbital   2 p accepted.
  | Species Li :    hydro orbital   2 p accepted.
  | Species Li :    hydro orbital   3 d accepted.
  | Species Li :    hydro orbital   4 d accepted.
  | Species Li :    hydro orbital   4 f accepted.
  | Species P :   atomic orbital   1 s accepted.
  | Species P :   atomic orbital   2 s accepted.
  | Species P :    ionic orbital   3 s accepted.
  | Species P :   atomic orbital   3 s accepted.
  | Species P :   atomic orbital   2 p accepted.
  | Species P :    ionic orbital   3 p accepted.
  | Species P :   atomic orbital   3 p accepted.
  | Species P :    ionic orbital   3 d accepted.
  | Species P :    hydro orbital   4 d accepted.
  | Species P :    hydro orbital   4 f accepted.
  | Species P :    hydro orbital   5 g accepted.
  | Species S :   atomic orbital   1 s accepted.
  | Species S :   atomic orbital   2 s accepted.
  | Species S :    ionic orbital   3 s accepted.
  | Species S :   atomic orbital   3 s accepted.
  | Species S :   atomic orbital   2 p accepted.
  | Species S :   atomic orbital   3 p accepted.
  | Species S :    hydro orbital   2 p accepted.
  | Species S :    ionic orbital   3 d accepted.
  | Species S :    hydro orbital   4 d accepted.
  | Species S :    hydro orbital   4 f accepted.
  | Species S :    hydro orbital   5 g accepted.
  | Species Cl :   atomic orbital   1 s accepted.
  | Species Cl :   atomic orbital   2 s accepted.
  | Species Cl :    ionic orbital   3 s accepted.
  | Species Cl :   atomic orbital   3 s accepted.
  | Species Cl :   atomic orbital   2 p accepted.
  | Species Cl :   atomic orbital   3 p accepted.
  | Species Cl :    hydro orbital   2 p accepted.
  | Species Cl :    ionic orbital   3 d accepted.
  | Species Cl :    hydro orbital   3 d accepted.
  | Species Cl :    hydro orbital   4 f accepted.
  | Species Cl :    hydro orbital   5 g accepted.
 
  Basis size parameters after reduction:
  | Total number of radial functions:       43
  | Total number of basis functions :      453
 
  Per-task memory consumption for arrays in subroutine allocate_ext:
  |          11.258640MB.
  Testing on-site integration grid accuracy.
  |  Species  Function  <phi|h_atom|phi> (log., in eV)  <phi|h_atom|phi> (rad., in eV)
           1        1                -51.7417001117                -51.7417000312
           1        2                 33.5927188637                 33.5926505054
           1        3                 69.1469416012                 69.1473382425
           1        4                 48.8336153902                 48.8810182289 ***
           1        5                 17.1749490570                 17.1749098864
           1        6                 32.1201183828                 32.1217831653
           1        7                  6.0166019876                  6.0249480535
           1        8                  4.9175332206                  4.9194842525
           1        9                 28.8010599263                 28.8011051086
           1       10                  9.9331480983                  9.9353515081
           2       11              -2077.7602992527              -2077.7602630746
           2       12               -173.0177635265               -173.0177629291
           2       13                -13.5620523038                -13.5620521963
           2       14                  6.3015351439                  6.3015396353
           2       15               -124.4642131574               -124.4642129967
           2       16                 -4.8468074573                 -4.8468065719
           2       17                  5.8113348591                  5.8108493787
           2       18                  5.1218113540                  5.1217878152
           2       19                 22.1386653152                 22.1386624883
           2       20                 19.3047268689                 19.3047231214
           2       21                 30.3235883931                 30.3235836780
           3       22              -2397.5482725833              -2397.5482291499
           3       23               -210.4116306505               -210.4116300246
           3       24                -16.8591546483                -16.8591544436
           3       25                  7.5848976656                  7.5849001027
           3       26               -156.4742745766               -156.4742744285
           3       27                 -7.0089268331                 -7.0089287934
           3       28                  6.8790437028                  6.8789536772
           3       29                  6.0023049431                  6.0023019693
           3       30                 19.5634804122                 19.5634829634
           3       31                 24.6809503130                 24.6809503093
           3       32                 47.5107032033                 47.5107040524
           4       33              -2740.4801671239              -2740.4801157382
           4       34               -250.9705040601               -250.9705032686
           4       35                -20.2716828479                -20.2716826054
           4       36                  9.0161300765                  9.0161279813
           4       37               -191.5646602865               -191.5646600866
           4       38                 -8.6049187754                 -8.6049181478
           4       39                  7.6458046208                  7.6458222053
           4       40                  6.9765726558                  6.9765744583
           4       41                 16.6546700656                 16.6546956458
           4       42                 28.0343243807                 28.0343233726
           4       43                 45.0370063060                 45.0370052039
 * Note: Onsite integrals marked "***" above are less accurate than
 * onsite_accuracy_threshold =    0.03000 eV. Usually, this is harmless.
 * When in doubt, tighten the "radial" and/or "radial_multiplier" flags to check.

  Preparing densities etc. for the partition functions (integrals / Hartree potential).

  Preparations completed.
  max(cpu_time)          :      0.324 s.
  Wall clock time (cpu1) :      0.324 s.
------------------------------------------------------------

------------------------------------------------------------
          Begin self-consistency loop: Initialization.

          Date     :  20220223, Time     :  140351.548
------------------------------------------------------------

  Initializing index lists of integration centers etc. from given atomic structure:
  Mapping all atomic coordinates to central unit cell.

  Initializing the k-points
          Using symmetry for reducing the k-points
  | k-points reduced from:       27 to       14
  | Number of k-points                             :        14
  The eigenvectors in the calculations are COMPLEX.
  | K-points in task   0:        14
  | Number of basis functions in the Hamiltonian integrals :      7859
  | Number of basis functions in a single unit cell        :       453
  | Number of centers in hartree potential         :      1549
  | Number of centers in hartree multipole         :      1005
  | Number of centers in electron density summation:       801
  | Number of centers in basis integrals           :       825
  | Number of centers in integrals                 :       299
  | Number of centers in hamiltonian               :       966
  | Consuming         29 KiB for k_phase.
  | Number of super-cells (origin) [n_cells]                     :         729
  | Number of super-cells (after PM_index) [n_cells]             :         136
  | Number of super-cells in hamiltonian [n_cells_in_hamiltonian]:         136
  | Size of matrix packed + index [n_hamiltonian_matrix_size] :     2070769
  Partitioning the integration grid into batches with parallel hashing+maxmin method.
  | Number of batches:     3845
  | Maximal batch size:     134
  | Minimal batch size:      63
  | Average batch size:      70.255
  | Standard deviation of batch sizes:      16.210

  Integration load balanced across     1 MPI tasks.
  Work distribution over tasks is as follows:
  Task     0 has     270130 integration points.
  Initializing partition tables, free-atom densities, potentials, etc. across the integration grid (initialize_grid_storage).
  | initialize_grid_storage: Actual outermost partition radius vs. multipole_radius_free
  | (-- VB: in principle, multipole_radius_free should be larger, hence this output)
  | Species        1: Confinement radius =              7.000000000000000 AA, multipole_radius_free =              7.042572113910259 AA.
  | Species        1: outer_partition_radius set to              7.042572113910259 AA .
  | Species        2: Confinement radius =              6.000000000000000 AA, multipole_radius_free =              6.033387558927091 AA.
  | Species        2: outer_partition_radius set to              6.033387558927091 AA .
  | Species        3: Confinement radius =              6.000000000000000 AA, multipole_radius_free =              6.012827091137924 AA.
  | Species        3: outer_partition_radius set to              6.012827091137924 AA .
  | Species        4: Confinement radius =              6.000000000000000 AA, multipole_radius_free =              6.015836048499353 AA.
  | Species        4: outer_partition_radius set to              6.015836048499353 AA .
  | Original list of interatomic distances with         825 x        825 entries is created.
  | Net number of integration points:   270130
  | of which are non-zero points    :   218628
  | Numerical average free-atom electrostatic potential    :     -8.92611447 eV
  Renormalizing the initial density to the exact electron count on the 3D integration grid.
  | Initial density: Formal number of electrons (from input files) :     130.0000000000
  | Integrated number of electrons on 3D grid     :     130.0000270829
  | Charge integration error                      :       0.0000270829
  | Normalization factor for density and gradient :       0.9999997917
  Obtaining max. number of non-zero basis functions in each batch (get_n_compute_maxes).
  | Maximal number of non-zero basis functions:     1682 in task     0
  Allocating        9.640 MB for KS_eigenvector_complex
  Integrating Hamiltonian matrix: batch-based integration.
  Time summed over all CPUs for integration: real work       63.640 s, elapsed       63.640 s
  Integrating overlap matrix.
  Time summed over all CPUs for integration: real work       47.964 s, elapsed       47.964 s
  Decreasing sparse matrix size:
   Tolerance:  9.999999824516700E-014
   Hamiltonian matrix
  | Array has  1798521 nonzero elements out of  2070769 elements
  | Sparsity factor is 0.131
   Overlap matrix
  | Array has  1706106 nonzero elements out of  2070769 elements
  | Sparsity factor is 0.176
  New size of hamiltonian matrix:     1798858

  Updating Kohn-Sham eigenvalues and eigenvectors using ELSI and the ELPA eigensolver.
  Overlap matrix is nonsingular
  | Lowest eigenvalue of overlap  :  0.62E-04
  | Highest eigenvalue of overlap :  0.12E+02
  Finished singularity check of overlap matrix
  | Time :     0.034 s
  Finished Cholesky decomposition
  | Time :     0.008 s
  Finished transformation to standard eigenproblem
  | Time :     0.015 s
  Starting LAPACK eigensolver
  Finished solving standard eigenproblem
  | Time :     0.034 s
  Finished back-transformation of eigenvectors
  | Time :     0.002 s

  Obtaining occupation numbers and chemical potential using ELSI.
  | Chemical potential (Fermi level):    -8.64495469eV
  Writing Kohn-Sham eigenvalues.
  K-point:       1 at    0.000000    0.000000    0.000000 (in units of recip. lattice)

  State    Occupation    Eigenvalue [Ha]    Eigenvalue [eV]
      1       2.00000        -100.716906        -2740.64644
      2       2.00000         -88.181772        -2399.54811
      3       2.00000         -88.148741        -2398.64927
      4       2.00000         -88.148741        -2398.64927
      5       2.00000         -88.148741        -2398.64927
      6       2.00000         -88.148741        -2398.64927
      7       2.00000         -76.384947        -2078.54015
      8       2.00000          -9.229527         -251.14821
      9       2.00000          -7.809068         -212.49555
     10       2.00000          -7.775573         -211.58411
     11       2.00000          -7.775573         -211.58411
     12       2.00000          -7.775573         -211.58411
     13       2.00000          -7.775573         -211.58411
     14       2.00000          -7.046348         -191.74089
     15       2.00000          -7.046348         -191.74089
     16       2.00000          -7.046348         -191.74089
     17       2.00000          -6.391821         -173.93029
     18       2.00000          -5.826564         -158.54886
     19       2.00000          -5.826564         -158.54886
     20       2.00000          -5.826564         -158.54886
     21       2.00000          -5.793764         -157.65633
     22       2.00000          -5.793764         -157.65633
     23       2.00000          -5.793764         -157.65633
     24       2.00000          -5.793764         -157.65633
     25       2.00000          -5.792804         -157.63022
     26       2.00000          -5.792804         -157.63022
     27       2.00000          -5.792804         -157.63022
     28       2.00000          -5.792804         -157.63022
     29       2.00000          -5.792804         -157.63022
     30       2.00000          -5.792804         -157.63022
     31       2.00000          -5.792804         -157.63022
     32       2.00000          -5.792804         -157.63022
     33       2.00000          -4.607142         -125.36671
     34       2.00000          -4.607142         -125.36671
     35       2.00000          -4.607142         -125.36671
     36       2.00000          -1.916359          -52.14678
     37       2.00000          -1.916272          -52.14440
     38       2.00000          -1.916272          -52.14440
     39       2.00000          -1.916272          -52.14440
     40       2.00000          -1.916230          -52.14328
     41       2.00000          -1.916230          -52.14328
     42       2.00000          -0.798262          -21.72182
     43       2.00000          -0.767480          -20.88420
     44       2.00000          -0.744695          -20.26418
     45       2.00000          -0.720596          -19.60840
     46       2.00000          -0.720596          -19.60840
     47       2.00000          -0.720596          -19.60840
     48       2.00000          -0.567471          -15.44166
     49       2.00000          -0.435929          -11.86224
     50       2.00000          -0.435929          -11.86223
     51       2.00000          -0.435929          -11.86223
     52       2.00000          -0.392400          -10.67774
     53       2.00000          -0.392399          -10.67773
     54       2.00000          -0.392399          -10.67773
     55       2.00000          -0.363844           -9.90070
     56       2.00000          -0.363844           -9.90069
     57       2.00000          -0.349760           -9.51744
     58       2.00000          -0.349759           -9.51744
     59       2.00000          -0.349759           -9.51744
     60       2.00000          -0.328593           -8.94146
     61       2.00000          -0.328593           -8.94146
     62       2.00000          -0.328592           -8.94146
     63       2.00000          -0.319702           -8.69954
     64       2.00000          -0.319702           -8.69954
     65       2.00000          -0.319702           -8.69954
     66       0.00000          -0.210066           -5.71618
     67       0.00000          -0.153511           -4.17726
     68       0.00000          -0.135537           -3.68815
     69       0.00000          -0.135537           -3.68814
     70       0.00000          -0.135537           -3.68814
     71       0.00000          -0.092420           -2.51488
     72       0.00000          -0.092420           -2.51488
     73       0.00000          -0.092420           -2.51487
     74       0.00000          -0.041973           -1.14215
     75       0.00000          -0.041972           -1.14211
     76       0.00000          -0.041972           -1.14211
     77       0.00000          -0.030399           -0.82720
     78       0.00000          -0.030398           -0.82718
     79       0.00000          -0.013634           -0.37101
     80       0.00000          -0.013634           -0.37099
     81       0.00000           0.021254            0.57835
     82       0.00000           0.021256            0.57840
     83       0.00000           0.021257            0.57844
     84       0.00000           0.033166            0.90248
     85       0.00000           0.060647            1.65029
     86       0.00000           0.060647            1.65030
     87       0.00000           0.060648            1.65032
     88       0.00000           0.066001            1.79597
     89       0.00000           0.066001            1.79598
     90       0.00000           0.073816            2.00863
     91       0.00000           0.073817            2.00865
     92       0.00000           0.073817            2.00866
     93       0.00000           0.085977            2.33955
     94       0.00000           0.085979            2.33960
     95       0.00000           0.085979            2.33961

  What follows are estimated values for band gap, HOMO, LUMO, etc.
  | They are estimated on a discrete k-point grid and not necessarily exact.
  | For converged numbers, create a DOS and/or band structure plot on a denser k-grid.

  Highest occupied state (VBM) at     -8.69390936 eV (relative to internal zero)
  | Occupation number:      2.00000000
  | K-point:      10 at    0.333333    0.333333    0.333333 (in units of recip. lattice)

  Lowest unoccupied state (CBM) at    -5.71617904 eV (relative to internal zero)
  | Occupation number:      0.00000000
  | K-point:       1 at    0.000000    0.000000    0.000000 (in units of recip. lattice)

  ESTIMATED overall HOMO-LUMO gap:      2.97773033 eV between HOMO at k-point 10 and LUMO at k-point 1
  | This appears to be an indirect band gap.
  | Smallest direct gap :      2.98336103 eV for k_point 1 at    0.000000    0.000000    0.000000 (in units of recip. lattice)
  The gap value is above 0.2 eV. Unless you are using a very sparse k-point grid,
  this system is most likely an insulator or a semiconductor.
  Calculating total energy contributions from superposition of free atom densities.

  Total energy components:
  | Sum of eigenvalues            :       -1634.28535322 Ha      -44471.16712930 eV
  | XC energy correction          :        -189.91547607 Ha       -5167.86304194 eV
  | XC potential correction       :         245.34424169 Ha        6676.15649555 eV
  | Free-atom electrostatic energy:       -1258.46868272 Ha      -34244.67520673 eV
  | Hartree energy correction     :           0.00000000 Ha           0.00000000 eV
  | Entropy correction            :          -0.00000000 Ha          -0.00000000 eV
  | ---------------------------
  | Total energy                  :       -2837.32527033 Ha      -77207.54888242 eV
  | Total energy, T -> 0          :       -2837.32527033 Ha      -77207.54888242 eV  <-- do not rely on this value for anything but (periodic) metals
  | Electronic free energy        :       -2837.32527033 Ha      -77207.54888242 eV

  Derived energy quantities:
  | Kinetic energy                :        2832.54284843 Ha       77077.41256125 eV
  | Electrostatic energy          :       -5479.95264268 Ha     -149117.09840172 eV
  | Energy correction for multipole
  | error in Hartree potential    :           0.00000000 Ha           0.00000000 eV
  | Sum of eigenvalues per atom                           :       -3420.85900995 eV
  | Total energy (T->0) per atom                          :       -5939.04222172 eV  <-- do not rely on this value for anything but (periodic) metals
  | Electronic free energy per atom                       :       -5939.04222172 eV
  Initialize hartree_potential_storage
  Max. number of atoms included in rho_multipole:           13

  End scf initialization - timings             :  max(cpu_time)    wall_clock(cpu1)
  | Time for scf. initialization               :      139.147 s         139.191 s
  | Boundary condition initialization          :        0.548 s           0.549 s
  | Integration                                :      117.788 s         117.832 s
  | Solution of K.-S. eqns.                    :        1.425 s           1.425 s
  | Grid partitioning                          :        2.735 s           2.735 s
  | Preloading free-atom quantities on grid    :        0.014 s           0.014 s
  | Free-atom superposition energy             :        1.955 s           1.955 s
  | Total energy evaluation                    :        0.000 s           0.000 s

  Partial memory accounting:
  | Current value for overall tracked memory usage on task 0  :          45.618 MB
  | Peak value for overall tracked memory usage on task 0     :          79.139 MB after allocating wave
  | Largest tracked array allocation on task 0 so far         :          22.633 MB  when allocating hamiltonian_shell
  Note:  These values currently only include a subset of arrays which are explicitly tracked.
  The "true" memory usage will be greater.
------------------------------------------------------------

------------------------------------------------------------
          Begin self-consistency iteration #    1

  Date     :  20220223, Time     :  140610.739
------------------------------------------------------------
  Evaluating new KS density using the density matrix
  Evaluating density matrix
  Time summed over all CPUs for getting density from density matrix: real work      116.357 s, elapsed      116.357 s
  Integration grid: deviation in total charge (<rho> - N_e) =  -1.051603E-12
  Pulay mixing of updated and previous charge densities.

  Evaluating partitioned Hartree potential by multipole expansion.
  | Analytical far-field extrapolation by fixed multipoles:
  | Hartree multipole sum: apparent total charge =   0.139356E-02
  Summing up the Hartree potential.
  | Estimated reciprocal-space cutoff momentum G_max:         2.37653911 bohr^-1 .
  | Reciprocal lattice points for long-range Hartree potential:     458
  Time summed over all CPUs for potential: real work       16.920 s, elapsed       16.920 s
  | RMS charge density error from multipole expansion :   0.408043E-03
  | Average real-space part of the electrostatic potential :      0.01632319 eV

  Integrating Hamiltonian matrix: batch-based integration.
  Time summed over all CPUs for integration: real work       64.561 s, elapsed       64.561 s

  Updating Kohn-Sham eigenvalues and eigenvectors using ELSI and the ELPA eigensolver.
  Finished Cholesky decomposition
  | Time :     0.008 s
  Finished transformation to standard eigenproblem
  | Time :     0.014 s
  Starting LAPACK eigensolver
  Finished solving standard eigenproblem
  | Time :     0.035 s
  Finished back-transformation of eigenvectors
  | Time :     0.002 s

  Obtaining occupation numbers and chemical potential using ELSI.
  | Chemical potential (Fermi level):    -8.60783714eV
  Writing Kohn-Sham eigenvalues.
  K-point:       1 at    0.000000    0.000000    0.000000 (in units of recip. lattice)

  State    Occupation    Eigenvalue [Ha]    Eigenvalue [eV]
      1       2.00000        -100.708564        -2740.41947
      2       2.00000         -88.168202        -2399.17885
      3       2.00000         -88.144082        -2398.52250
      4       2.00000         -88.144082        -2398.52250
      5       2.00000         -88.144082        -2398.52250
      6       2.00000         -88.144082        -2398.52250
      7       2.00000         -76.396422        -2078.85241
      8       2.00000          -9.222776         -250.96451
      9       2.00000          -7.797911         -212.19197
     10       2.00000          -7.772053         -211.48832
     11       2.00000          -7.772053         -211.48832
     12       2.00000          -7.772053         -211.48832
     13       2.00000          -7.772053         -211.48831
     14       2.00000          -7.039442         -191.55296
     15       2.00000          -7.039442         -191.55296
     16       2.00000          -7.039442         -191.55296
     17       2.00000          -6.400916         -174.17778
     18       2.00000          -5.815187         -158.23929
     19       2.00000          -5.815187         -158.23929
     20       2.00000          -5.815187         -158.23929
     21       2.00000          -5.790392         -157.56459
     22       2.00000          -5.790392         -157.56459
     23       2.00000          -5.790392         -157.56459
     24       2.00000          -5.790392         -157.56459
     25       2.00000          -5.789049         -157.52804
     26       2.00000          -5.789049         -157.52804
     27       2.00000          -5.789049         -157.52803
     28       2.00000          -5.789049         -157.52803
     29       2.00000          -5.789049         -157.52803
     30       2.00000          -5.789049         -157.52803
     31       2.00000          -5.789049         -157.52803
     32       2.00000          -5.789049         -157.52803
     33       2.00000          -4.616416         -125.61907
     34       2.00000          -4.616416         -125.61907
     35       2.00000          -4.616416         -125.61907
     36       2.00000          -1.916458          -52.14947
     37       2.00000          -1.916371          -52.14711
     38       2.00000          -1.916371          -52.14711
     39       2.00000          -1.916371          -52.14710
     40       2.00000          -1.916330          -52.14600
     41       2.00000          -1.916330          -52.14599
     42       2.00000          -0.799146          -21.74586
     43       2.00000          -0.763735          -20.78229
     44       2.00000          -0.738191          -20.08721
     45       2.00000          -0.719619          -19.58183
     46       2.00000          -0.719619          -19.58183
     47       2.00000          -0.719619          -19.58183
     48       2.00000          -0.568133          -15.45970
     49       2.00000          -0.436336          -11.87331
     50       2.00000          -0.436336          -11.87330
     51       2.00000          -0.436336          -11.87330
     52       2.00000          -0.387549          -10.54574
     53       2.00000          -0.387549          -10.54574
     54       2.00000          -0.387549          -10.54574
     55       2.00000          -0.362877           -9.87439
     56       2.00000          -0.362877           -9.87438
     57       2.00000          -0.348194           -9.47485
     58       2.00000          -0.348194           -9.47484
     59       2.00000          -0.348194           -9.47484
     60       2.00000          -0.326129           -8.87442
     61       2.00000          -0.326129           -8.87441
     62       2.00000          -0.326128           -8.87441
     63       2.00000          -0.318338           -8.66242
     64       2.00000          -0.318338           -8.66242
     65       2.00000          -0.318338           -8.66241
     66       0.00000          -0.210749           -5.73478
     67       0.00000          -0.152404           -4.14713
     68       0.00000          -0.136554           -3.71582
     69       0.00000          -0.136554           -3.71581
     70       0.00000          -0.136553           -3.71581
     71       0.00000          -0.091015           -2.47665
     72       0.00000          -0.091015           -2.47664
     73       0.00000          -0.091014           -2.47663
     74       0.00000          -0.040945           -1.11417
     75       0.00000          -0.040943           -1.11413
     76       0.00000          -0.040943           -1.11412
     77       0.00000          -0.029874           -0.81292
     78       0.00000          -0.029873           -0.81289
     79       0.00000          -0.012409           -0.33768
     80       0.00000          -0.012408           -0.33765
     81       0.00000           0.021870            0.59512
     82       0.00000           0.021872            0.59516
     83       0.00000           0.021873            0.59521
     84       0.00000           0.034371            0.93528
     85       0.00000           0.061365            1.66982
     86       0.00000           0.061365            1.66982
     87       0.00000           0.061366            1.66984
     88       0.00000           0.067342            1.83247
     89       0.00000           0.067343            1.83248
     90       0.00000           0.074489            2.02694
     91       0.00000           0.074490            2.02696
     92       0.00000           0.074490            2.02697
     93       0.00000           0.087350            2.37691
     94       0.00000           0.087352            2.37696
     95       0.00000           0.087352            2.37698

  What follows are estimated values for band gap, HOMO, LUMO, etc.
  | They are estimated on a discrete k-point grid and not necessarily exact.
  | For converged numbers, create a DOS and/or band structure plot on a denser k-grid.

  Highest occupied state (VBM) at     -8.65672787 eV (relative to internal zero)
  | Occupation number:      2.00000000
  | K-point:       3 at    0.000000    0.333333    0.000000 (in units of recip. lattice)

  Lowest unoccupied state (CBM) at    -5.73478009 eV (relative to internal zero)
  | Occupation number:      0.00000000
  | K-point:       1 at    0.000000    0.000000    0.000000 (in units of recip. lattice)

  ESTIMATED overall HOMO-LUMO gap:      2.92194778 eV between HOMO at k-point 3 and LUMO at k-point 1
  | This appears to be an indirect band gap.
  | Smallest direct gap :      2.92763390 eV for k_point 1 at    0.000000    0.000000    0.000000 (in units of recip. lattice)
  The gap value is above 0.2 eV. Unless you are using a very sparse k-point grid,
  this system is most likely an insulator or a semiconductor.

  Total energy components:
  | Sum of eigenvalues            :       -1633.95579053 Ha      -44462.19927225 eV
  | XC energy correction          :        -189.94542165 Ha       -5168.67790254 eV
  | XC potential correction       :         245.38258622 Ha        6677.19990324 eV
  | Free-atom electrostatic energy:       -1258.46868272 Ha      -34244.67520673 eV
  | Hartree energy correction     :          -0.32522591 Ha          -8.84984737 eV
  | Entropy correction            :          -0.00000000 Ha          -0.00000000 eV
  | ---------------------------
  | Total energy                  :       -2837.31253460 Ha      -77207.20232565 eV
  | Total energy, T -> 0          :       -2837.31253460 Ha      -77207.20232565 eV  <-- do not rely on this value for anything but (periodic) metals
  | Electronic free energy        :       -2837.31253460 Ha      -77207.20232565 eV

  Derived energy quantities:
  | Kinetic energy                :        2832.71677529 Ha       77082.14535210 eV
  | Electrostatic energy          :       -5480.08388824 Ha     -149120.66977520 eV
  | Energy correction for multipole
  | error in Hartree potential    :          -0.00072887 Ha          -0.01983354 eV
  | Sum of eigenvalues per atom                           :       -3420.16917479 eV
  | Total energy (T->0) per atom                          :       -5939.01556351 eV  <-- do not rely on this value for anything but (periodic) metals
  | Electronic free energy per atom                       :       -5939.01556351 eV

  Self-consistency convergence accuracy:
  | Change of charge density      :  0.2839E+00
  | Change of sum of eigenvalues  :  0.8968E+01 eV
  | Change of total energy        :  0.3466E+00 eV

  End self-consistency iteration #     1       :  max(cpu_time)    wall_clock(cpu1)
  | Time for this iteration                    :      222.010 s         222.060 s
  | Charge density update                      :      122.903 s         122.932 s
  | Density mixing & preconditioning           :       12.043 s          12.043 s
  | Hartree multipole update                   :        0.024 s           0.024 s
  | Hartree multipole summation                :       17.934 s          17.936 s
  | Integration                                :       68.136 s          68.155 s
  | Solution of K.-S. eqns.                    :        0.969 s           0.969 s
  | Total energy evaluation                    :        0.000 s           0.000 s

  Partial memory accounting:
  | Current value for overall tracked memory usage on task 0  :          45.618 MB
  | Peak value for overall tracked memory usage on task 0     :          79.139 MB after allocating wave
  | Largest tracked array allocation on task 0 so far         :          22.633 MB  when allocating hamiltonian_shell
  Note:  These values currently only include a subset of arrays which are explicitly tracked.
  The "true" memory usage will be greater.
------------------------------------------------------------

------------------------------------------------------------
          Begin self-consistency iteration #    2

  Date     :  20220223, Time     :  140952.801
------------------------------------------------------------
  Evaluating new KS density using the density matrix
  Evaluating density matrix
  Time summed over all CPUs for getting density from density matrix: real work      122.015 s, elapsed      122.015 s
  Integration grid: deviation in total charge (<rho> - N_e) =  -1.591616E-12
  Pulay mixing of updated and previous charge densities.

  Evaluating partitioned Hartree potential by multipole expansion.
  | Analytical far-field extrapolation by fixed multipoles:
  | Hartree multipole sum: apparent total charge =   0.168901E-01
  Summing up the Hartree potential.
  Time summed over all CPUs for potential: real work       19.272 s, elapsed       19.272 s
  | RMS charge density error from multipole expansion :   0.506623E-02
  | Average real-space part of the electrostatic potential :      0.19917543 eV

  Integrating Hamiltonian matrix: batch-based integration.
  Time summed over all CPUs for integration: real work       62.963 s, elapsed       62.963 s

[...]
  |   Free atom volume        :     76.98066615
  |   Hirshfeld volume        :     76.16778406
  |   Hirshfeld dipole vector :      0.00000000       0.00001332       0.00000878
  |   Hirshfeld dipole moment :      0.00001595
  |   Hirshfeld second moments:     -0.09041757      -0.00000000      -0.00000000
  |                                 -0.00000000      -0.09042160      -0.00004865
  |                                 -0.00000000      -0.00004865      -0.09040788
  ----------------------------------------------------------------------
  | Atom    13: Cl
  |   Hirshfeld charge        :     -0.31046595
  |   Free atom volume        :     66.13469196
  |   Hirshfeld volume        :     65.15452314
  |   Hirshfeld dipole vector :      0.00000000      -0.00000140       0.00002372
  |   Hirshfeld dipole moment :      0.00002376
  |   Hirshfeld second moments:     -0.05922081       0.00000000       0.00000000
  |                                  0.00000000      -0.05918040      -0.00000391
  |                                  0.00000000      -0.00000391      -0.05919053
  ----------------------------------------------------------------------

  | Many-Body Dispersion (MBD@rsSCS) energy
  | Total dynamic anisotropic polarizability, \alpha_{ij}(iu), (a.u.)
  | -------------------------------------------------------------------
  |      u            xx         yy         zz         yz         xz         xy
  |   0.000000    653.738    653.743    653.741      0.003      0.000      0.000
   Negative alpha! Aborting this iteration
  | --------------------------------------------------------------

  Total energy components:
  | Sum of eigenvalues            :       -1630.85638153 Ha      -44377.86006211 eV
  | XC energy correction          :        -190.30954956 Ha       -5178.58632706 eV
  | XC potential correction       :         245.84658291 Ha        6689.82589560 eV
  | Free-atom electrostatic energy:       -1258.46868272 Ha      -34244.67520673 eV
  | Hartree energy correction     :          -3.45722105 Ha         -94.07577116 eV
  | Entropy correction            :          -0.00000000 Ha          -0.00000000 eV
  | ---------------------------
  | Total energy                  :       -2837.24525194 Ha      -77205.37147146 eV
  | Total energy, T -> 0          :       -2837.24525194 Ha      -77205.37147146 eV  <-- do not rely on this value for anything but (periodic) metals
  | Electronic free energy        :       -2837.24525194 Ha      -77205.37147146 eV

  Derived energy quantities:
  | Kinetic energy                :        2832.52570503 Ha       77076.94606583 eV
  | Electrostatic energy          :       -5479.46140742 Ha     -149103.73121023 eV
  | Energy correction for multipole
  | error in Hartree potential    :          -0.01628018 Ha          -0.44300613 eV
  | Sum of eigenvalues per atom                           :       -3413.68154324 eV
  | Total energy (T->0) per atom                          :       -5938.87472857 eV  <-- do not rely on this value for anything but (periodic) metals
  | Electronic free energy per atom                       :       -5938.87472857 eV

  atomic forces [eV/Ang]:
  -----------------------
  atom #    1
   Hellmann-Feynman              : -0.279739E-01 -0.161722E-01  0.226207E-01
   Ionic forces                  :  0.000000E+00  0.000000E+00  0.000000E+00
   Multipole                     : -0.371519E-02 -0.203731E-02  0.296474E-02
   Pulay + GGA                   :  0.844770E-01  0.486563E-01 -0.686810E-01
   Van der Waals                 :  0.000000E+00  0.000000E+00  0.000000E+00
   ----------------------------------------------------------------
   Total forces(   1)            :  0.527879E-01  0.304468E-01 -0.430955E-01
  atom #    2
   Hellmann-Feynman              :  0.276055E-01  0.162245E-01 -0.229189E-01
   Ionic forces                  :  0.000000E+00  0.000000E+00  0.000000E+00
   Multipole                     :  0.367028E-02  0.190556E-02 -0.297989E-02
   Pulay + GGA                   : -0.840451E-01 -0.485989E-01  0.690183E-01
   Van der Waals                 :  0.000000E+00  0.000000E+00  0.000000E+00
   ----------------------------------------------------------------
   Total forces(   2)            : -0.527693E-01 -0.304688E-01  0.431195E-01
  atom #    3
   Hellmann-Feynman              :  0.279738E-01 -0.161722E-01  0.226207E-01
   Ionic forces                  :  0.000000E+00  0.000000E+00  0.000000E+00
   Multipole                     :  0.371519E-02 -0.203730E-02  0.296474E-02
   Pulay + GGA                   : -0.844770E-01  0.486563E-01 -0.686810E-01
   Van der Waals                 :  0.000000E+00  0.000000E+00  0.000000E+00
   ----------------------------------------------------------------
   Total forces(   3)            : -0.527880E-01  0.304469E-01 -0.430955E-01
  atom #    4
   Hellmann-Feynman              : -0.276056E-01  0.162246E-01 -0.229189E-01
   Ionic forces                  :  0.000000E+00  0.000000E+00  0.000000E+00
   Multipole                     : -0.367028E-02  0.190556E-02 -0.297989E-02
   Pulay + GGA                   :  0.840451E-01 -0.485989E-01  0.690182E-01
   Van der Waals                 :  0.000000E+00  0.000000E+00  0.000000E+00
   ----------------------------------------------------------------
   Total forces(   4)            :  0.527693E-01 -0.304688E-01  0.431195E-01
  atom #    5
   Hellmann-Feynman              :  0.628249E-10 -0.328628E-01 -0.227859E-01
   Ionic forces                  :  0.000000E+00  0.000000E+00  0.000000E+00
   Multipole                     : -0.171312E-08 -0.418890E-02 -0.294637E-02
   Pulay + GGA                   : -0.356805E-08  0.980392E-01  0.688163E-01
   Van der Waals                 :  0.000000E+00  0.000000E+00  0.000000E+00
   ----------------------------------------------------------------
   Total forces(   5)            : -0.521834E-08  0.609875E-01  0.430841E-01
  atom #    6
   Hellmann-Feynman              : -0.440322E-07  0.321533E-01  0.229944E-01
   Ionic forces                  :  0.000000E+00  0.000000E+00  0.000000E+00
   Multipole                     :  0.516740E-08  0.425969E-02  0.283558E-02
   Pulay + GGA                   :  0.231277E-07 -0.973341E-01 -0.689804E-01
   Van der Waals                 :  0.000000E+00  0.000000E+00  0.000000E+00
   ----------------------------------------------------------------
   Total forces(   6)            : -0.157371E-07 -0.609211E-01 -0.431505E-01
  atom #    7
   Hellmann-Feynman              : -0.803909E-06 -0.181808E-02 -0.517613E-03
   Ionic forces                  :  0.000000E+00  0.000000E+00  0.000000E+00
   Multipole                     : -0.484018E-07  0.984419E-03  0.247226E-03
   Pulay + GGA                   :  0.236302E-06  0.856309E-03  0.222213E-03
   Van der Waals                 :  0.000000E+00  0.000000E+00  0.000000E+00
   ----------------------------------------------------------------
   Total forces(   7)            : -0.616009E-06  0.226516E-04 -0.481744E-04
  atom #    8
   Hellmann-Feynman              : -0.123719E+02  0.714326E+01  0.504841E+01
   Ionic forces                  :  0.000000E+00  0.000000E+00  0.000000E+00
   Multipole                     :  0.241804E+00 -0.138916E+00 -0.986104E-01
   Pulay + GGA                   :  0.127275E+02 -0.734912E+01 -0.519367E+01
   Van der Waals                 :  0.000000E+00  0.000000E+00  0.000000E+00
   ----------------------------------------------------------------
   Total forces(   8)            :  0.597370E+00 -0.344777E+00 -0.243865E+00
  atom #    9
   Hellmann-Feynman              : -0.141920E-06 -0.149812E-02 -0.151553E+02
   Ionic forces                  :  0.000000E+00  0.000000E+00  0.000000E+00
   Multipole                     : -0.826185E-08  0.109864E-02  0.296822E+00
   Pulay + GGA                   :  0.357329E-06  0.468362E-03  0.155900E+02
   Van der Waals                 :  0.000000E+00  0.000000E+00  0.000000E+00
   ----------------------------------------------------------------
   Total forces(   9)            :  0.207147E-06  0.688800E-04  0.731504E+00
  atom #   10
   Hellmann-Feynman              : -0.140514E-06 -0.142898E+02  0.505130E+01
   Ionic forces                  :  0.000000E+00  0.000000E+00  0.000000E+00
   Multipole                     : -0.851961E-08  0.281111E+00 -0.979531E-01
   Pulay + GGA                   :  0.339525E-06  0.146989E+02 -0.519726E+01
   Van der Waals                 :  0.000000E+00  0.000000E+00  0.000000E+00
   ----------------------------------------------------------------
   Total forces(  10)            :  0.190492E-06  0.690219E+00 -0.243918E+00
  atom #   11
   Hellmann-Feynman              :  0.123719E+02  0.714326E+01  0.504841E+01
   Ionic forces                  :  0.000000E+00  0.000000E+00  0.000000E+00
   Multipole                     : -0.241804E+00 -0.138916E+00 -0.986104E-01
   Pulay + GGA                   : -0.127275E+02 -0.734912E+01 -0.519367E+01
   Van der Waals                 :  0.000000E+00  0.000000E+00  0.000000E+00
   ----------------------------------------------------------------
   Total forces(  11)            : -0.597369E+00 -0.344777E+00 -0.243865E+00
  atom #   12
   Hellmann-Feynman              : -0.387901E-06 -0.519658E-03  0.248800E-02
   Ionic forces                  :  0.000000E+00  0.000000E+00  0.000000E+00
   Multipole                     :  0.488327E-08  0.322958E-03 -0.159054E-02
   Pulay + GGA                   :  0.370814E-06  0.247624E-03 -0.933880E-03
   Van der Waals                 :  0.000000E+00  0.000000E+00  0.000000E+00
   ----------------------------------------------------------------
   Total forces(  12)            : -0.122030E-07  0.509238E-04 -0.364174E-04
  atom #   13
   Hellmann-Feynman              : -0.131207E-06  0.381631E-03 -0.793697E-03
   Ionic forces                  :  0.000000E+00  0.000000E+00  0.000000E+00
   Multipole                     :  0.935332E-10  0.479275E-05 -0.679272E-05
   Pulay + GGA                   :  0.108334E-06 -0.449288E-03  0.731710E-03
   Van der Waals                 :  0.000000E+00  0.000000E+00  0.000000E+00
   ----------------------------------------------------------------
   Total forces(  13)            : -0.227802E-07 -0.628641E-04 -0.687800E-04

  Timings for VdW correction (Tkatchenko-Scheffler 2009 or later):
  | CPU time:       64.061 s, Wall clock time:       64.062 s.
  Removing unitary transformations (pure translations, rotations) from forces on atoms.
  Atomic forces before filtering:
  | Net force on center of mass :   0.708979E-07  0.766965E-03 -0.317119E-03 eV/A
  Atomic forces after filtering:
  | Net force on center of mass :   0.590795E-16  0.116839E-15 -0.126248E-15 eV/A

  Energy and forces in a compact form:
  | Total energy uncorrected      :         -0.772053714714577E+05 eV
  | Total energy corrected        :         -0.772053714714577E+05 eV  <-- do not rely on this value for anything but (periodic) metals
  | Electronic free energy        :         -0.772053714714577E+05 eV
  Total atomic forces (unitary forces cleaned) [eV/Ang]:
  |   1          0.527878579457669E-01          0.303878298327850E-01         -0.430710931458569E-01
  |   2         -0.527693513977551E-01         -0.305278095591478E-01          0.431439255311372E-01
  |   3         -0.527879666202036E-01          0.303878562188701E-01         -0.430711550662332E-01
  |   4          0.527692469682756E-01         -0.305277622415152E-01          0.431438725100736E-01
  |   5         -0.106720299729037E-07          0.609284915559748E-01          0.431084589104043E-01
  |   6         -0.211907577301336E-07         -0.609801345017905E-01         -0.431260945690937E-01
  |   7         -0.621462672181759E-06         -0.363456819902933E-04         -0.237806395147870E-04
  |   8          0.597369618197088E+00         -0.344836088777585E+00         -0.243841089218710E+00
  |   9          0.201693256684768E-06          0.988270078661026E-05          0.731528229934083E+00
  |  10          0.185037828698560E-06          0.690160024416906E+00         -0.243893833551068E+00
  |  11         -0.597369092608229E+00         -0.344836009004580E+00         -0.243841030944849E+00
  |  12         -0.176566459062426E-07         -0.807352469875233E-05         -0.120235854177867E-04
  |  13         -0.282339221212265E-07         -0.121861434015113E-03         -0.443861649547807E-04

  ------------------------------------ 
  Start decomposition of the XC Energy 
  ------------------------------------ 
  X and C from original XC functional choice 
  Hartree-Fock Energy :          0.000000000 Ha              0.000000000 eV
  X Energy            :       -185.488769968 Ha          -5047.406240032 eV
  C Energy            :         -4.820779591 Ha           -131.180087027 eV
  Total XC Energy     :       -190.309549559 Ha          -5178.586327059 eV
  ------------------------------------ 
  LDA X and C from self-consistent density 
  X Energy LDA        :       -171.531921455 Ha          -4667.621068746 eV
  C Energy LDA        :         -9.771894219 Ha           -265.906770886 eV
  ------------------------------------ 
  End decomposition of the XC Energy 
  ------------------------------------ 

------------------------------------------------------------

------------------------------------------------------------------------------
  Final output of selected total energy values:

  The following output summarizes some interesting total energy values
  at the end of a run (AFTER all relaxation, molecular dynamics, etc.).

  | Total energy of the DFT / Hartree-Fock s.c.f. calculation      :         -77205.371471458 eV
  | Final zero-broadening corrected energy (caution - metals only) :         -77205.371471458 eV
  | For reference only, the value of 1 Hartree used in FHI-aims is :             27.211384500 eV

  Before relying on these values, please be sure to understand exactly which
  total energy value is referred to by a given number. Different objects may
  all carry the same name 'total energy'. Definitions:

  Total energy of the DFT / Hartree-Fock s.c.f. calculation:
  | Note that this energy does not include ANY quantities calculated after the
  | s.c.f. cycle, in particular not ANY RPA, MP2, etc. many-body perturbation terms.

  Final zero-broadening corrected energy:
  | For metallic systems only, a broadening of the occupation numbers at the Fermi
  | level can be extrapolated back to zero broadening by an electron-gas inspired
  | formula. For all systems that are not real metals, this value can be
  | meaningless and should be avoided.

------------------------------------------------------------------------------
  Methods described in the following list of references were used in this FHI-aims run.
  If you publish the results, please make sure to cite these reference if they apply.
  FHI-aims is an academic code, and for our developers (often, Ph.D. students
  and postdocs), scientific credit in the community is essential.
  Thank you for helping us!

  For any use of FHI-aims, please cite:

    Volker Blum, Ralf Gehrke, Felix Hanke, Paula Havu, Ville Havu,
    Xinguo Ren, Karsten Reuter, and Matthias Scheffler
    'Ab initio molecular simulations with numeric atom-centered orbitals'
    Computer Physics Communications 180, 2175-2196 (2009)
    http://dx.doi.org/10.1016/j.cpc.2009.06.022


  The provided symmetry information was generated with SPGlib:

    Atsushi Togo, Yusuke Seto, Dimitar Pashov
    SPGlib 1.7.3 obtained from http://spglib.sourceforge.net
    Copyright (C) 2008 Atsushi Togo


  The scalable eigensolver library ELPA was used in your run.
  ELPA is essential especially for large systems on hundreds or thousands of CPUs.
  For ELPA, please cite:

    Andreas Marek, Volker Blum, Rainer Johanni, Ville Havu, Bruno Lang,
    Thomas Auckenthaler, Alexander Heinecke, Hans-Joachim Bungartz, and Hermann Lederer,
    'The ELPA Library - Scalable Parallel Eigenvalue Solutions
    for Electronic Structure Theory and Computational Science'
    The Journal of Physics: Condensed Matter 26, 213201 (2014).
    http://dx.doi.org/10.1088/0953-8984/26/21/213201


  The ELSI infrastructure was used in your run to solve the Kohn-Sham electronic structure.
  Please check out http://elsi-interchange.org to learn more.
  If scalability is important for your project, please acknowledge ELSI by citing:

    V. W-z. Yu, F. Corsetti, A. Garcia, W. P. Huhn, M. Jacquelin, W. Jia,
    B. Lange, L. Lin, J. Lu, W. Mi, A. Seifitokaldani, A. Vazquez-Mayagoitia,
    C. Yang, H. Yang, and V. Blum
    'ELSI: A unified software interface for Kohn-Sham electronic structure solvers'
    Computer Physics Communications 222, 267-285 (2018).
    http://dx.doi.org/10.1016/j.cpc.2017.09.007


  For the real-space grid partitioning and parallelization used in this calculation, please cite:

    Ville Havu, Volker Blum, Paula Havu, and Matthias Scheffler,
    'Efficient O(N) integration for all-electron electronic structure calculation'
    'using numerically tabulated basis functions'
    Journal of Computational Physics 228, 8367-8379 (2009).
    http://dx.doi.org/10.1016/j.jcp.2009.08.008

  Of course, there are many other important community references, e.g., those cited in the
  above references. Our list is limited to references that describe implementations in the
  FHI-aims code. The reason is purely practical (length of this list) - please credit others as well.

------------------------------------------------------------
          Leaving FHI-aims.
          Date     :  20220223, Time     :  154249.539

          Computational steps:
          | Number of self-consistency cycles          :           21
          | Number of SCF (re)initializations          :            1

          Detailed time accounting                     :  max(cpu_time)    wall_clock(cpu1)
          | Total time                                 :     5935.670 s        5938.351 s
          | Preparation time                           :        0.324 s           0.324 s
          | Boundary condition initalization           :        0.548 s           0.549 s
          | Grid partitioning                          :        2.735 s           2.735 s
          | Preloading free-atom quantities on grid    :        0.014 s           0.014 s
          | Free-atom superposition energy             :        1.955 s           1.955 s
          | Total time for integrations                :     1520.892 s        1521.629 s
          | Total time for solution of K.-S. equations :       21.756 s          21.764 s
          | Total time for density & force components  :     3505.367 s        3506.934 s
          | Total time for mixing & preconditioning    :      222.316 s         222.412 s
          | Total time for Hartree multipole update    :        0.547 s           0.545 s
          | Total time for Hartree multipole sum       :      580.271 s         580.515 s
          | Total time for total energy evaluation     :        0.003 s           0.004 s
          | Total time for vdW correction              :       64.061 s          64.062 s

          Partial memory accounting:
          | Residual value for overall tracked memory usage across tasks :           0.000 MB (should be 0.000 MB)
          | Peak values for overall tracked memory usage (after allocating wave_pulay):
          |   Minimum:      104.314 MB (on task 1)
          |   Maximum:      104.314 MB (on task 1)
          |   Average:      104.314 MB
          | Largest tracked array allocation (hamiltonian_shell):
          |   Minimum:       22.633 MB (on task 1)
          |   Maximum:       22.633 MB (on task 1)
          |   Average:       22.633 MB
          Note:  These values currently only include a subset of arrays which are explicitly tracked.
          The "true" memory usage will be greater.

          Have a nice day.
------------------------------------------------------------
