  MPI-parallelism will be employed.
------------------------------------------------------------
          Invoking FHI-aims ...
          Version 171221_1
          Compiled on 2020/09/23 at 19:46:43 on host login.service.

          When using FHI-aims, please cite the following reference:

          Volker Blum, Ralf Gehrke, Felix Hanke, Paula Havu,
          Ville Havu, Xinguo Ren, Karsten Reuter, and Matthias Scheffler,
          'Ab Initio Molecular Simulations with Numeric Atom-Centered Orbitals',
          Computer Physics Communications 180, 2175-2196 (2009)

          For any questions about FHI-aims, please visit the aimsclub website
          with its forums and wiki. Contributions to both the forums and the
          wiki are warmly encouraged - they are for you, and everyone is welcome there.

------------------------------------------------------------



  Date     :  20220723, Time     :  170447.077
  Time zero on CPU 1             :   0.823170000000000E-01  s.
  Internal wall clock time zero  :           427827887.077  s.

  FHI-aims created a unique identifier for this run for later identification
  aims_uuid : F06B9869-2DFB-4C6F-AE07-3B45B492678A

  Using       20 parallel tasks.
  Task        0 on host node043 reporting.
  Task        1 on host node043 reporting.
  Task        2 on host node043 reporting.
  Task        3 on host node043 reporting.
  Task        4 on host node043 reporting.
  Task        5 on host node043 reporting.
  Task        6 on host node043 reporting.
  Task        7 on host node043 reporting.
  Task        8 on host node043 reporting.
  Task        9 on host node043 reporting.
  Task       10 on host node043 reporting.
  Task       11 on host node043 reporting.
  Task       12 on host node043 reporting.
  Task       13 on host node043 reporting.
  Task       14 on host node043 reporting.
  Task       15 on host node043 reporting.
  Task       16 on host node043 reporting.
  Task       17 on host node043 reporting.
  Task       18 on host node043 reporting.
  Task       19 on host node043 reporting.

  Performing system and environment tests:
  *** Environment variable OMP_NUM_THREADS is not set
  *** For performance reasons you might want to set it to 1
  | Maximum stacksize for task 0: unlimited
  | Maximum stacksize for task 1: unlimited
  | Maximum stacksize for task 2: unlimited
  | Maximum stacksize for task 3: unlimited
  | Maximum stacksize for task 4: unlimited
  | Maximum stacksize for task 5: unlimited
  | Maximum stacksize for task 6: unlimited
  | Maximum stacksize for task 7: unlimited
  | Maximum stacksize for task 8: unlimited
  | Maximum stacksize for task 9: unlimited
  | Maximum stacksize for task 10: unlimited
  | Maximum stacksize for task 11: unlimited
  | Maximum stacksize for task 12: unlimited
  | Maximum stacksize for task 13: unlimited
  | Maximum stacksize for task 14: unlimited
  | Maximum stacksize for task 15: unlimited
  | Maximum stacksize for task 16: unlimited
  | Maximum stacksize for task 17: unlimited
  | Maximum stacksize for task 18: unlimited
  | Maximum stacksize for task 19: unlimited
  | Current stacksize for task 0: unlimited
  | Current stacksize for task 1: unlimited
  | Current stacksize for task 2: unlimited
  | Current stacksize for task 3: unlimited
  | Current stacksize for task 4: unlimited
  | Current stacksize for task 5: unlimited
  | Current stacksize for task 6: unlimited
  | Current stacksize for task 7: unlimited
  | Current stacksize for task 8: unlimited
  | Current stacksize for task 9: unlimited
  | Current stacksize for task 10: unlimited
  | Current stacksize for task 11: unlimited
  | Current stacksize for task 12: unlimited
  | Current stacksize for task 13: unlimited
  | Current stacksize for task 14: unlimited
  | Current stacksize for task 15: unlimited
  | Current stacksize for task 16: unlimited
  | Current stacksize for task 17: unlimited
  | Current stacksize for task 18: unlimited
  | Current stacksize for task 19: unlimited
  | Checking for scalapack...
  | Testing pdtran()...
  | All pdtran() tests passed.

  Obtaining array dimensions for all initial allocations:
  
  -----------------------------------------------------------------------
  Parsing control.in (first pass over file, find array dimensions only).
  The contents of control.in will be repeated verbatim below
  unless switched off by setting 'verbatim_writeout .false.' .
  in the first line of control.in .
  -----------------------------------------------------------------------
  
  #===============================================================================
  # FHI-aims file: ./control.in
  # Created using the Atomic Simulation Environment (ASE)
  # Wed Mar 24 12:41:28 2021
  #===============================================================================
  xc                                 pbe
  sc_accuracy_etot                   1e-06
  sc_accuracy_eev                    0.001
  sc_accuracy_rho                    1e-06
  sc_accuracy_forces                 0.0001
  friction_temperature               300  # default 300
  
    k_grid                           3  3  3
  
  
  ################################################################################
  #
  #  FHI-aims code project
  #  VB, Fritz-Haber Institut, 2009
  #
  #  Suggested "light" defaults for Li atom (to be pasted into control.in file)
  #  Be sure to double-check any results obtained with these settings for post-processing,
  #  e.g., with the "tight" defaults and larger basis sets.
  #
  ################################################################################
    species        Li
  #     global species definitions
      nucleus             3
      mass                6.941
  #
      l_hartree           4
  #
      cut_pot             3.5  1.5  1.0
      basis_dep_cutoff    1e-4
  #
      radial_base         29 5.0
      radial_multiplier   1
      angular_grids       specified
        division   0.4484  110
        division   0.5659  194
        division   0.6315  302
  #      division   0.6662  434
  #      division   0.8186  590
  #      division   0.9037  770
  #      division   6.2760  974
  #      outer_grid   974
        outer_grid   302
  ################################################################################
  #
  #  Definition of "minimal" basis
  #
  ################################################################################
  #     valence basis states
      valence      2  s   1.
  #     ion occupancy
      ion_occ      1  s   2.
  ################################################################################
  #
  #  Suggested additional basis functions. For production calculations,
  #  uncomment them one after another (the most important basis functions are
  #  listed first).
  #
  #  Constructed for dimers: 1.80 A, 2.25 A, 2.75 A, 3.50 A, 4.50 A
  #
  ################################################################################
  #  "First tier" - improvements: -189.23 meV to -6.35 meV
       hydro 2 p 1.6
       hydro 2 s 2
       hydro 3 d 2.6
  #  "Second tier" - improvements: -4.69 meV to -0.41 meV
  #     hydro 3 p 4.6
  #     hydro 2 p 1.8
  #     hydro 3 s 6.2
  #     hydro 4 d 4.7
  #     hydro 4 f 4.1
  #  "Third tier" - improvements: -0.20 meV to -0.15 meV
  #     hydro 4 d 0.95
  #     hydro 3 p 6.2
  #     hydro 3 s 1.7
  #  Further functions, listed for completeness
  #     VB: The following functions are only listed for completeness; test very
  #         carefully before any kind of production use. From the point of view
  #         of the basis construction, their main role is to fill up space,
  #         and they are solely determined by the location of the cutoff potential.
  #     hydro 3 p 0.1  # -0.15 meV
  #     hydro 4 d 5    # -0.12 meV
  #     hydro 4 f 0.1  # -0.14 meV
  #     hydro 5 g 0.1  # -0.06 meV
  
  
  ################################################################################
  #
  #  FHI-aims code project
  #  VB, Fritz-Haber Institut, 2010
  #
  #  Suggested "light" defaults for P atom (to be pasted into control.in file)
  #  Be sure to double-check any results obtained with these settings for post-processing,
  #  e.g., with the "tight" defaults and larger basis sets.
  #
  ################################################################################
    species        P
  #     global species definitions
      nucleus             15
      mass                30.973762
  #
      l_hartree           4
  #
      cut_pot             3.5          1.5  1.0
      basis_dep_cutoff    1e-4
  #
      radial_base         43 5.0
      radial_multiplier   1
      angular_grids       specified
        division   0.5527   50
        division   0.8801  110
        division   1.1447  194
        division   1.3165  302
  #      division   1.4113  434
  #      division   1.4781  590
  #      division   1.5482  770
  #      division   1.5845  974
  #      division   2.2606 1202
        outer_grid  302
  ################################################################################
  #
  #  Definition of "minimal" basis
  #
  ################################################################################
  #     valence basis states
      valence      3  s   2.
      valence      3  p   3.
  #     ion occupancy
      ion_occ      3  s   1.
      ion_occ      3  p   2.
  ################################################################################
  #
  #  Suggested additional basis functions. For production calculations,
  #  uncomment them one after another (the most important basis functions are
  #  listed first).
  #
  #  Constructed for dimers: 1.625 A, 1.875 A, 2.5 A, 3.25 A, 4.0 A
  #
  ################################################################################
  #  "First tier" - improvements: -726.20 meV to -35.91 meV
       ionic 3 d auto
       ionic 3 p auto
  #     hydro 4 f 6.2
  #     hydro 5 g 8.6
       ionic 3 s auto
  #  "Second tier" - improvements: -16.02 meV to -1.71 meV
  #     hydro 4 d 6.2
  #     hydro 4 p 9.2
  #     hydro 5 f 9.8
  #     hydro 1 s 0.7
  #     hydro 5 g 13.2
  #  "Third tier" - improvements: -1.82 meV to -0.20 meV
  #     hydro 3 p 2.5
  #     hydro 4 d 6.4
  #     hydro 5 f 11.2
  #     hydro 2 s 1.5
  #  "Fourth tier" - improvements: -0.91 meV to -0.17 meV
  #     hydro 3 d 16.8
  #     hydro 5 g 18
  #     hydro 4 p 4.5
  #     hydro 3 s 2.1
  #  Further basis functions that fell out of the optimization - < -0.09 meV
  #     hydro 4 p 10.4
  #     hydro 4 d 17.6
  #     hydro 4 s 11.2
  ################################################################################
  #
  #  FHI-aims code project
  #  VB, Fritz-Haber Institut, 2009
  #
  #  Suggested "light" defaults for S atom (to be pasted into control.in file)
  #  Be sure to double-check any results obtained with these settings for post-processing,
  #  e.g., with the "tight" defaults and larger basis sets.
  #
  ################################################################################
    species        S
  #     global species definitions
      nucleus             16
      mass                32.065
  #
      l_hartree           4
  #
      cut_pot             3.5          1.5  1.0
      basis_dep_cutoff    1e-4
  #
      radial_base         44 5.0
      radial_multiplier   1
      angular_grids       specified
        division   0.4665  110
        division   0.5810  194
        division   0.7139  302
  #      division   0.8274  434
  #      division   0.9105  590
  #      division   1.0975  770
  #      division   1.2028  974
  #      outer_grid  974
        outer_grid  302
  ################################################################################
  #
  #  Definition of "minimal" basis
  #
  ################################################################################
  #     valence basis states
      valence      3  s   2.
      valence      3  p   4.
  #     ion occupancy
      ion_occ      3  s   1.
      ion_occ      3  p   3.
  ################################################################################
  #
  #  Suggested additional basis functions. For production calculations,
  #  uncomment them one after another (the most important basis functions are
  #  listed first).
  #
  #  Constructed for dimers: 1.6 A, 1.9 A, 2.5 A, 3.25 A, 4.0 A
  #
  ################################################################################
  #  "First tier" - improvements: -652.81 meV to -45.53 meV
       ionic 3 d auto
       hydro 2 p 1.8
  #     hydro 4 f 7
       ionic 3 s auto
  #  "Second tier" - improvements: -30.20 meV to -1.74 meV
  #     hydro 4 d 6.2
  #     hydro 5 g 10.8
  #     hydro 4 p 4.9
  #     hydro 5 f 10
  #     hydro 1 s 0.8
  #  "Third tier" - improvements: -1.04 meV to -0.20 meV
  #     hydro 3 d 3.9
  #     hydro 3 d 2.7
  #     hydro 5 g 12
  #     hydro 4 p 10.4
  #     hydro 5 f 12.4
  #     hydro 2 s 1.9
  #  "Fourth tier" - improvements: -0.35 meV to -0.06 meV
  #     hydro 4 d 10.4
  #     hydro 4 p 7.2
  #     hydro 4 d 10
  #     hydro 5 g 19.2
  #     hydro 4 s 12
  
  ################################################################################
  #
  #  FHI-aims code project
  #  VB, Fritz-Haber Institut, 2009
  #
  #  Suggested "light" defaults for Cl atom (to be pasted into control.in file)
  #  Be sure to double-check any results obtained with these settings for post-processing,
  #  e.g., with the "tight" defaults and larger basis sets.
  #
  ################################################################################
    species        Cl
  #     global species definitions
      nucleus             17
      mass                35.453
  #
      l_hartree           4
  #
      cut_pot             3.5          1.5  1.0
      basis_dep_cutoff    1e-4
  #
      radial_base         45 5.0
      radial_multiplier   1
      angular_grids       specified
        division   0.4412  110
        division   0.5489  194
        division   0.6734  302
  #      division   0.7794  434
  #      division   0.9402  590
  #      division   1.0779  770
  #      division   1.1792  974
  #      outer_grid  974
        outer_grid  302
  ################################################################################
  #
  #  Definition of "minimal" basis
  #
  ################################################################################
  #     valence basis states
      valence      3  s   2.
      valence      3  p   5.
  #     ion occupancy
      ion_occ      3  s   1.
      ion_occ      3  p   4.
  ################################################################################
  #
  #  Suggested additional basis functions. For production calculations,
  #  uncomment them one after another (the most important basis functions are
  #  listed first).
  #
  #  Constructed for dimers: 1.65 A, 2.0 A, 2.5 A, 3.25 A, 4.0 A
  #
  ################################################################################
  #  "First tier" - improvements: -429.57 meV to -15.03 meV
       ionic 3 d auto
       hydro 2 p 1.9
  #     hydro 4 f 7.4
       ionic 3 s auto
  #     hydro 5 g 10.4
  #  "Second tier" - improvements: -7.84 meV to -0.48 meV
  #     hydro 3 d 3.3
  #     hydro 5 f 9.8
  #     hydro 1 s 0.75
  #     hydro 5 g 11.2
  #     hydro 4 p 10.4
  #  "Third tier" - improvements: -1.00 meV to -0.12 meV
  #     hydro 4 d 12.8
  #     hydro 4 f 4.6
  #     hydro 4 d 10.8
  #     hydro 2 s 1.8
  #     hydro 3 p 3
  #  Further functions that fell out - improvements: -0.10 meV and below
  #     hydro 5 f 14.4
  #     hydro 4 s 12.8
  #     hydro 3 d 11.6
  #     hydro 4 s 4.1
  
  -----------------------------------------------------------------------
  Completed first pass over input file control.in .
  -----------------------------------------------------------------------
  
  
  -----------------------------------------------------------------------
  Parsing geometry.in (first pass over file, find array dimensions only).
  The contents of geometry.in will be repeated verbatim below
  unless switched off by setting 'verbatim_writeout .false.' .
  in the first line of geometry.in .
  -----------------------------------------------------------------------
  
  #=======================================================
  # FHI-aims file: geometry.in.4
  # Created using the Atomic Simulation Environment (ASE)
  # Sat Jul 23 22:56:02 2022
  #=======================================================
  lattice_vector 9.8979997634999997 0.0000000000000000 0.0000000000000000
  lattice_vector 0.0000000000000000 9.8979997634999997 0.0000000000000000
  lattice_vector 0.0000000000000000 0.0000000000000000 9.8979997634999997
  atom 2.9847116699999998 0.0887939400000000 6.9050327200000003 Li
  atom 3.7629716499999999 0.0739303300000000 2.6716061299999998 Li
  atom 6.8968764299999998 3.2095755000000001 0.4382165600000000 Li
  atom 6.7391577800000002 6.7445353299999997 -0.1494759600000000 Li
  atom 0.3573926900000000 6.5922959499999996 2.9951362000000001 Li
  atom 9.4458846699999999 6.5848942700000004 6.9898258899999997 Li
  atom 0.0245775400000000 2.8094420400000000 6.4819589999999998 Li
  atom 3.5356049399999998 6.4189072400000002 3.7830651700000000 Li
  atom 6.6582834399999999 8.1038158599999992 4.9964445000000000 Li
  atom 5.2748615599999997 2.2677328499999998 2.6795840300000000 Li
  atom 1.4396697199999999 8.7598196900000005 3.6879802499999998 Li
  atom 0.4458532700000000 2.2663033100000001 2.1953072300000001 Li
  atom 7.6623114399999999 -0.2015871400000000 1.5962395400000000 Li
  atom 8.2514787500000004 10.0291727099999992 7.9874635400000003 Li
  atom 2.1411579600000001 7.7950899199999997 7.1975939499999999 Li
  atom 5.8070947500000001 5.7408204200000004 7.3602387900000004 Li
  atom 7.8671701299999999 5.3297595800000002 4.4407419199999998 Li
  atom 0.0458163400000000 8.7963387500000003 2.4321731999999998 Li
  atom 1.5946364799999999 2.0050125200000002 9.5740930300000002 Li
  atom 4.7819670299999997 7.0815110099999998 5.0504807600000001 Li
  atom 0.0081609400000000 -0.0117910800000000 4.9183067100000004 P
  atom 4.8929847700000000 0.0604535500000000 -0.1340192100000000 P
  atom 0.0510094800000000 4.9893822999999999 0.0778722500000000 P
  atom 5.0572051599999996 4.8714473600000003 4.8181855200000001 P
  atom 1.1506171900000000 8.6423898000000001 6.1007710299999998 S
  atom 8.5965499100000002 1.1064078399999999 6.0562356599999996 S
  atom 8.7270295299999994 8.6827929800000003 3.7217594799999998 S
  atom 1.2663170600000000 1.2297058400000000 3.8762679599999998 S
  atom 6.0772003500000000 1.2928268100000000 8.5947161600000008 S
  atom 6.0123846099999998 8.7370763300000007 1.0684056000000000 S
  atom 3.6762799500000001 8.7763089999999995 8.5710134799999995 S
  atom 3.6969616500000000 1.2906963800000000 0.9734614900000000 S
  atom 8.7234750499999993 5.9582073900000001 1.4445069200000000 S
  atom 1.0654511799999999 6.3104565099999999 8.8024172800000002 S
  atom 8.7537265499999997 3.7811655000000002 8.8385333399999997 S
  atom 1.4207658599999999 3.8797812999999999 1.1628748400000000 S
  atom 6.0818337600000003 6.2506537399999997 3.7186957999999999 S
  atom 6.3250500100000000 3.7921890700000001 6.0115254000000000 S
  atom 4.0858136099999998 3.6118473199999999 3.5268009100000000 S
  atom 3.6289256399999998 5.7602658299999998 6.0479883399999999 S
  atom 2.3668205900000001 2.4936749499999999 7.2540696999999996 Cl
  atom 7.3134333600000003 7.5393838000000004 7.4843314599999999 Cl
  atom 4.7367071799999998 -0.2327336200000000 4.8929528400000004 Cl
  atom 5.1615237900000004 5.0305814000000000 -0.2583427600000000 Cl
  atom -0.0497286300000000 0.2602403500000000 0.1663799400000000 Cl
  atom 0.0300422700000000 4.9570735299999997 5.0233017999999996 Cl
  atom 7.5963873000000000 2.3519079600000001 2.4720184900000000 Cl
  atom 2.4716053100000002 7.5248888599999999 2.4620893100000001 Cl
  
  -----------------------------------------------------------------------
  Completed first pass over input file geometry.in .
  -----------------------------------------------------------------------
  

  Basic array size parameters:
  | Number of species                 :        4
  | Number of atoms                   :       48
  | Number of lattice vectors         :        3
  | Max. basis fn. angular momentum   :        2
  | Max. atomic/ionic basis occupied n:        3
  | Max. number of basis fn. types    :        3
  | Max. radial fns per species/type  :        5
  | Max. logarithmic grid size        :     1362
  | Max. radial integration grid size :       45
  | Max. angular integration grid size:      302
  | Max. angular grid division number :        8
  | Radial grid for Hartree potential :     1362
  | Number of spin channels           :        1

------------------------------------------------------------
          Reading file control.in.
------------------------------------------------------------
  XC: Using PBE gradient-corrected functionals.
  Convergence accuracy of total energy:  0.1000E-05
  Convergence accuracy of sum of eigenvalues:  0.1000E-02
  Convergence accuracy of self-consistent charge density:  0.1000E-05
  Convergence accuracy of forces:  0.1000E-03
  Friction is calculated at temperature of   0.3000E+03 K
  Found k-point grid:         3         3         3
 
  Reading configuration options for species Li                  .
  | Found nuclear charge :   3.0000
  | Found atomic mass :    6.94100000000000      amu
  | Found l_max for Hartree potential  :   4
  | Found cutoff potl. onset [A], width [A], scale factor :    3.50000    1.50000    1.00000
  | Threshold for basis-dependent cutoff potential is   0.100000E-03
  | Found data for basic radial integration grid :    29 points, outermost radius =    5.000 A
  | Found multiplier for basic radial grid :   1
  | Found angular grid specification: user-specified.
  | Specified grid contains     4 separate shells.
  | Check grid settings after all constraints further below.
  | Found free-atom valence shell :  2 s   1.000
  | Found free-ion valence shell :  1 s   2.000
  | Found hydrogenic basis function :  2 p   1.600
  | Found hydrogenic basis function :  2 s   2.000
  | Found hydrogenic basis function :  3 d   2.600
  Species Li                  : Missing cutoff potential type.
  Defaulting to exp(1/x)/(1-x)^2 type cutoff potential.
  Species Li: No 'logarithmic' tag. Using default grid for free atom:
  | Default logarithmic grid data [bohr] : 0.1000E-03 0.1000E+03 0.1012E+01
  Species Li: On-site basis accuracy parameter (for Gram-Schmidt orthonormalisation) not specified.
  Using default value basis_acc =  0.1000000E-03.
  Species Li                  : Using default innermost maximum threshold i_radial=  2 for radial functions.
  Species Li                  : Default cutoff onset for free atom density etc. : 0.35000000E+01 AA.
  Species Li                  : Basic radial grid will be enhanced according to radial_multiplier =   1, to contain    29 grid points.
 
  Reading configuration options for species P                   .
  | Found nuclear charge :  15.0000
  | Found atomic mass :    30.9737620000000      amu
  | Found l_max for Hartree potential  :   4
  | Found cutoff potl. onset [A], width [A], scale factor :    3.50000    1.50000    1.00000
  | Threshold for basis-dependent cutoff potential is   0.100000E-03
  | Found data for basic radial integration grid :    43 points, outermost radius =    5.000 A
  | Found multiplier for basic radial grid :   1
  | Found angular grid specification: user-specified.
  | Specified grid contains     5 separate shells.
  | Check grid settings after all constraints further below.
  | Found free-atom valence shell :  3 s   2.000
  | Found free-atom valence shell :  3 p   3.000
  | Found free-ion valence shell :  3 s   1.000
  | Found free-ion valence shell :  3 p   2.000
  | Found ionic basis function :  3 d , default cutoff radius.
  | Found ionic basis function :  3 p , default cutoff radius.
  | Found ionic basis function :  3 s , default cutoff radius.
  Species P                   : Missing cutoff potential type.
  Defaulting to exp(1/x)/(1-x)^2 type cutoff potential.
  Species P : No 'logarithmic' tag. Using default grid for free atom:
  | Default logarithmic grid data [bohr] : 0.1000E-03 0.1000E+03 0.1012E+01
  | Will include ionic basis functions of  2.0-fold positive P                    ion.
  Species P : On-site basis accuracy parameter (for Gram-Schmidt orthonormalisation) not specified.
  Using default value basis_acc =  0.1000000E-03.
  Species P                   : Using default innermost maximum threshold i_radial=  2 for radial functions.
  Species P                   : Default cutoff onset for free atom density etc. : 0.35000000E+01 AA.
  Species P                   : Basic radial grid will be enhanced according to radial_multiplier =   1, to contain    43 grid points.
 
  Reading configuration options for species S                   .
  | Found nuclear charge :  16.0000
  | Found atomic mass :    32.0650000000000      amu
  | Found l_max for Hartree potential  :   4
  | Found cutoff potl. onset [A], width [A], scale factor :    3.50000    1.50000    1.00000
  | Threshold for basis-dependent cutoff potential is   0.100000E-03
  | Found data for basic radial integration grid :    44 points, outermost radius =    5.000 A
  | Found multiplier for basic radial grid :   1
  | Found angular grid specification: user-specified.
  | Specified grid contains     4 separate shells.
  | Check grid settings after all constraints further below.
  | Found free-atom valence shell :  3 s   2.000
  | Found free-atom valence shell :  3 p   4.000
  | Found free-ion valence shell :  3 s   1.000
  | Found free-ion valence shell :  3 p   3.000
  | Found ionic basis function :  3 d , default cutoff radius.
  | Found hydrogenic basis function :  2 p   1.800
  | Found ionic basis function :  3 s , default cutoff radius.
  Species S                   : Missing cutoff potential type.
  Defaulting to exp(1/x)/(1-x)^2 type cutoff potential.
  Species S : No 'logarithmic' tag. Using default grid for free atom:
  | Default logarithmic grid data [bohr] : 0.1000E-03 0.1000E+03 0.1012E+01
  | Will include ionic basis functions of  2.0-fold positive S                    ion.
  Species S : On-site basis accuracy parameter (for Gram-Schmidt orthonormalisation) not specified.
  Using default value basis_acc =  0.1000000E-03.
  Species S                   : Using default innermost maximum threshold i_radial=  2 for radial functions.
  Species S                   : Default cutoff onset for free atom density etc. : 0.35000000E+01 AA.
  Species S                   : Basic radial grid will be enhanced according to radial_multiplier =   1, to contain    44 grid points.
 
  Reading configuration options for species Cl                  .
  | Found nuclear charge :  17.0000
  | Found atomic mass :    35.4530000000000      amu
  | Found l_max for Hartree potential  :   4
  | Found cutoff potl. onset [A], width [A], scale factor :    3.50000    1.50000    1.00000
  | Threshold for basis-dependent cutoff potential is   0.100000E-03
  | Found data for basic radial integration grid :    45 points, outermost radius =    5.000 A
  | Found multiplier for basic radial grid :   1
  | Found angular grid specification: user-specified.
  | Specified grid contains     4 separate shells.
  | Check grid settings after all constraints further below.
  | Found free-atom valence shell :  3 s   2.000
  | Found free-atom valence shell :  3 p   5.000
  | Found free-ion valence shell :  3 s   1.000
  | Found free-ion valence shell :  3 p   4.000
  | Found ionic basis function :  3 d , default cutoff radius.
  | Found hydrogenic basis function :  2 p   1.900
  | Found ionic basis function :  3 s , default cutoff radius.
  Species Cl                  : Missing cutoff potential type.
  Defaulting to exp(1/x)/(1-x)^2 type cutoff potential.
  Species Cl: No 'logarithmic' tag. Using default grid for free atom:
  | Default logarithmic grid data [bohr] : 0.1000E-03 0.1000E+03 0.1012E+01
  | Will include ionic basis functions of  2.0-fold positive Cl                   ion.
  Species Cl: On-site basis accuracy parameter (for Gram-Schmidt orthonormalisation) not specified.
  Using default value basis_acc =  0.1000000E-03.
  Species Cl                  : Using default innermost maximum threshold i_radial=  2 for radial functions.
  Species Cl                  : Default cutoff onset for free atom density etc. : 0.35000000E+01 AA.
  Species Cl                  : Basic radial grid will be enhanced according to radial_multiplier =   1, to contain    45 grid points.
 
  Finished reading input file 'control.in'. Consistency checks are next.
 
  MPI_IN_PLACE appears to work with this MPI implementation.
  | Keeping use_mpi_in_place .true. (see manual).
  Target number of points in a grid batch is not set. Defaulting to  100
  Method for grid partitioning is not set. Defaulting to parallel hash+maxmin partitioning.
  Batch size limit is not set. Defaulting to    200
  By default, will store active basis functions for each batch.
  If in need of memory, prune_basis_once .false. can be used to disable this option.
  communication_type for Hartree potential was not specified.
  Defaulting to calc_hartree .
  Defaulting to Pulay charge density mixer.
  Pulay mixer: Number of relevant iterations not set.
  Defaulting to    8 iterations.
  Pulay mixer: Number of initial linear mixing iterations not set.
  Defaulting to    0 iterations.
  Work space size for distributed Hartree potential not set.
  Defaulting to   0.200000E+03 MB.
  Mixing parameter for charge density mixing has not been set.
  Using default: charge_mix_param =     0.0500.
  The mixing parameter will be adjusted in iteration number     2 of the first full s.c.f. cycle only.
  Algorithm-dependent basis array size parameters:
  | n_max_pulay                         :        8
  Maximum number of self-consistency iterations not provided.
  Presetting  1000 iterations.
  Presetting      1001 iterations before the initial mixing cycle
  is restarted anyway using the sc_init_iter criterion / keyword.
  Presetting a factor      1.000 between actual scf density residual
  and density convergence criterion sc_accuracy_rho below which sc_init_iter
  takes no effect.
  Geometry relaxation not requested: no relaxation will be performed.
  Handling of forces: Unphysical translation and rotation will be removed from forces.
  No accuracy limit for integral partition fn. given. Defaulting to  0.1000E-14.
  No threshold value for u(r) in integrations given. Defaulting to  0.1000E-05.
  No occupation type (smearing scheme) given. Defaulting to Gaussian broadening, width =  0.1000E-01 eV.
  The width will be adjusted in iteration number     2 of the first full s.c.f. cycle only.
  S.C.F. convergence parameters will be adjusted in iteration number     2 of the first full s.c.f. cycle only.
  No accuracy for occupation numbers given. Defaulting to  0.1000E-12.
  No threshold value for occupation numbers given. Defaulting to  0.0000E+00.
  No accuracy for fermi level given. Defaulting to  0.1000E-19.
  Maximum # of iterations to find E_F not set. Defaulting to  200.
  Preferred method for the eigenvalue solver ('KS_method') not specified in 'control.in'.
  Defaulting to serial version, 'lapack_fast', since more k-points than CPUs available.
  Will not use alltoall communication since running on < 1024 CPUs.
  Threshold for basis singularities not set.
  Default threshold for basis singularities:  0.1000E-04
  partition_type (choice of integration weights) for integrals was not specified.
  | Using a version of the partition function of Stratmann and coworkers ('stratmann_smoother').
  | At each grid point, the set of atoms used to build the partition table is smoothly restricted to
  | only those atoms whose free-atom density would be non-zero at that grid point.
  Partitioning for Hartree potential was not defined. Using partition_type for integrals.
  | Adjusted default value of keyword multip_moments_threshold to:       0.10000000E-11
  | This value may affect high angular momentum components of the Hartree potential in periodic systems.
  Spin handling was not defined in control.in. Defaulting to unpolarized case.
  Angular momentum expansion for Kerker preconditioner not set explicitly.
  | Using default value of   0
  No explicit requirement for turning off preconditioner.
  | By default, it will be turned off when the charge convergence reaches
  | sc_accuracy_rho  =   0.100000E-05
  | sc_accuracy_eev  =   0.100000E-02
  | sc_accuracy_etot =   0.100000E-05
  No special mixing parameter while Kerker preconditioner is on.
  Using default: charge_mix_param =     0.0500.
  No q(lm)/r^(l+1) cutoff set for long-range Hartree potential.
  | Using default value of  0.100000E-09 .
  | Verify using the multipole_threshold keyword.
  Defaulting to new monopole extrapolation.
  Density update method: automatic selection selected.
  Using density matrix based charge density update.
  Using density matrix based charge density update.
  Using packed matrix style: index .
  Defaulting to use time-reversal symmetry for k-point grid.
------------------------------------------------------------


------------------------------------------------------------
          Reading geometry description geometry.in.
------------------------------------------------------------
 * Warning! You did not set the 'relativistic' flag in input file 'control.in'.
 * Since you are not attempting to treat any elements beyond Ca(Z=20), FHI-aims
 * will default to 'relativistic none'.
 * You must ensure that this is really what you want!!
 * For example, DO NOT compute total-energy differences between results from
 * different settings of the 'relativistic' flag.
  Input structure read successfully.
  The structure contains       48 atoms,  and a total of        512.000 electrons.

  Input geometry:
  | Unit cell:
  |        9.89799976        0.00000000        0.00000000
  |        0.00000000        9.89799976        0.00000000
  |        0.00000000        0.00000000        9.89799976
  | Atomic structure:
  |       Atom                x [A]            y [A]            z [A]
  |    1: Species Li            2.98471167        0.08879394        6.90503272
  |    2: Species Li            3.76297165        0.07393033        2.67160613
  |    3: Species Li            6.89687643        3.20957550        0.43821656
  |    4: Species Li            6.73915778        6.74453533       -0.14947596
  |    5: Species Li            0.35739269        6.59229595        2.99513620
  |    6: Species Li            9.44588467        6.58489427        6.98982589
  |    7: Species Li            0.02457754        2.80944204        6.48195900
  |    8: Species Li            3.53560494        6.41890724        3.78306517
  |    9: Species Li            6.65828344        8.10381586        4.99644450
  |   10: Species Li            5.27486156        2.26773285        2.67958403
  |   11: Species Li            1.43966972        8.75981969        3.68798025
  |   12: Species Li            0.44585327        2.26630331        2.19530723
  |   13: Species Li            7.66231144       -0.20158714        1.59623954
  |   14: Species Li            8.25147875       10.02917271        7.98746354
  |   15: Species Li            2.14115796        7.79508992        7.19759395
  |   16: Species Li            5.80709475        5.74082042        7.36023879
  |   17: Species Li            7.86717013        5.32975958        4.44074192
  |   18: Species Li            0.04581634        8.79633875        2.43217320
  |   19: Species Li            1.59463648        2.00501252        9.57409303
  |   20: Species Li            4.78196703        7.08151101        5.05048076
  |   21: Species P             0.00816094       -0.01179108        4.91830671
  |   22: Species P             4.89298477        0.06045355       -0.13401921
  |   23: Species P             0.05100948        4.98938230        0.07787225
  |   24: Species P             5.05720516        4.87144736        4.81818552
  |   25: Species S             1.15061719        8.64238980        6.10077103
  |   26: Species S             8.59654991        1.10640784        6.05623566
  |   27: Species S             8.72702953        8.68279298        3.72175948
  |   28: Species S             1.26631706        1.22970584        3.87626796
  |   29: Species S             6.07720035        1.29282681        8.59471616
  |   30: Species S             6.01238461        8.73707633        1.06840560
  |   31: Species S             3.67627995        8.77630900        8.57101348
  |   32: Species S             3.69696165        1.29069638        0.97346149
  |   33: Species S             8.72347505        5.95820739        1.44450692
  |   34: Species S             1.06545118        6.31045651        8.80241728
  |   35: Species S             8.75372655        3.78116550        8.83853334
  |   36: Species S             1.42076586        3.87978130        1.16287484
  |   37: Species S             6.08183376        6.25065374        3.71869580
  |   38: Species S             6.32505001        3.79218907        6.01152540
  |   39: Species S             4.08581361        3.61184732        3.52680091
  |   40: Species S             3.62892564        5.76026583        6.04798834
  |   41: Species Cl            2.36682059        2.49367495        7.25406970
  |   42: Species Cl            7.31343336        7.53938380        7.48433146
  |   43: Species Cl            4.73670718       -0.23273362        4.89295284
  |   44: Species Cl            5.16152379        5.03058140       -0.25834276
  |   45: Species Cl           -0.04972863        0.26024035        0.16637994
  |   46: Species Cl            0.03004227        4.95707353        5.02330180
  |   47: Species Cl            7.59638730        2.35190796        2.47201849
  |   48: Species Cl            2.47160531        7.52488886        2.46208931

  Lattice parameters for 3D lattice (in Angstroms) :     9.898000    9.898000    9.898000
  Angle(s) between unit vectors (in degrees)      :    90.000000   90.000000   90.000000

  |

  | The smallest distance between any two atoms is         1.70355764 AA.
  |
  | The first atom of this pair is atom number                     15 .
  | The second atom of this pair is atom number                    25 .
  | Wigner-Seitz cell of the first atom image           0     0     0 .
  | (The Wigner-Seitz cell of the second atom is 0 0 0  by definition.)

  Symmetry information by spglib:
  | Precision set to  0.1E-04
  | Number of Operations  : 1
  | Space group           : 1
  | International         : P1 b
  | Schoenflies           : C1^1

  Quantities derived from the lattice vectors:
  | Reciprocal lattice vector 1:  0.634793  0.000000  0.000000
  | Reciprocal lattice vector 2:  0.000000  0.634793  0.000000
  | Reciprocal lattice vector 3:  0.000000  0.000000  0.634793
  | Unit cell volume                               :   0.969711E+03  A^3

  Range separation radius for Ewald summation (hartree_convergence_parameter):      3.90166475 bohr.

  Fractional coordinates:
                         L1                L2                L3
       atom_frac         0.30154695        0.00897090        0.69761900  Li
       atom_frac         0.38017496        0.00746922        0.26991374  Li
       atom_frac         0.69679497        0.32426506        0.04427324  Li
       atom_frac         0.68086057        0.68140387       -0.01510163  Li
       atom_frac         0.03610757        0.66602305        0.30260015  Li
       atom_frac         0.95432258        0.66527525        0.70618570  Li
       atom_frac         0.00248308        0.28383937        0.65487565  Li
       atom_frac         0.35720398        0.64850550        0.38220502  Li
       atom_frac         0.67268980        0.81873268        0.50479335  Li
       atom_frac         0.53292197        0.22911021        0.27071975  Li
       atom_frac         0.14545057        0.88500908        0.37259854  Li
       atom_frac         0.04504478        0.22896579        0.22179302  Li
       atom_frac         0.77412726       -0.02036645        0.16126890  Li
       atom_frac         0.83365114        1.01325247        0.80697754  Li
       atom_frac         0.21632229        0.78754194        0.72717661  Li
       atom_frac         0.58669377        0.57999804        0.74360871  Li
       atom_frac         0.79482424        0.53846835        0.44865044  Li
       atom_frac         0.00462885        0.88869862        0.24572371  Li
       atom_frac         0.16110694        0.20256744        0.96727554  Li
       atom_frac         0.48312459        0.71544869        0.51025267  Li
       atom_frac         0.00082450       -0.00119126        0.49689905  P
       atom_frac         0.49434076        0.00610765       -0.01354003  P
       atom_frac         0.00515351        0.50407986        0.00786747  P
       atom_frac         0.51093203        0.49216483        0.48678376  P
       atom_frac         0.11624745        0.87314508        0.61636403  S
       atom_frac         0.86851385        0.11178095        0.61186460  S
       atom_frac         0.88169628        0.87722703        0.37601127  S
       atom_frac         0.12793666        0.12423781        0.39162134  S
       atom_frac         0.61398267        0.13061496        0.86832859  S
       atom_frac         0.60743431        0.88271131        0.10794157  S
       atom_frac         0.37141645        0.88667501        0.86593389  S
       atom_frac         0.37350593        0.13039972        0.09834931  S
       atom_frac         0.88133716        0.60196075        0.14593928  S
       atom_frac         0.10764308        0.63754866        0.88931274  S
       atom_frac         0.88439349        0.38201309        0.89296156  S
       atom_frac         0.14354070        0.39197630        0.11748584  S
       atom_frac         0.61445079        0.63150676        0.37570175  S
       atom_frac         0.63902305        0.38312681        0.60734750  S
       atom_frac         0.41279185        0.36490679        0.35631451  S
       atom_frac         0.36663222        0.58196262        0.61103137  S
       atom_frac         0.23912110        0.25193726        0.73288239  Cl
       atom_frac         0.73887993        0.76170782        0.75614585  Cl
       atom_frac         0.47855196       -0.02351320        0.49433754  Cl
       atom_frac         0.52147140        0.50824222       -0.02610050  Cl
       atom_frac        -0.00502411        0.02629222        0.01680945  Cl
       atom_frac         0.00303519        0.50081568        0.50750676  Cl
       atom_frac         0.76746691        0.23761447        0.24974930  Cl
       atom_frac         0.24970755        0.76024339        0.24874615  Cl

  Number of empty states per atom not set in control.in - providing a guess from actual geometry.
  | Total number of empty states used during s.c.f. cycle:      114
  If you use a very high smearing, use empty_states (per atom!) in control.in to increase this value.

  Structure-dependent array size parameters: 
  | Maximum number of distinct radial functions  :       29
  | Maximum number of basis functions            :      724
  | Number of Kohn-Sham states (occupied + empty):      370
------------------------------------------------------------

------------------------------------------------------------
          Preparing all fixed parts of the calculation.
------------------------------------------------------------
  Determining machine precision:
    2.225073858507201E-308
  Setting up grids for atomic and cluster calculations.

  Creating wave function, potential, and density for free atoms.

  Species: Li

  List of occupied orbitals and eigenvalues:
    n    l              occ      energy [Ha]    energy [eV]
    1    0           2.0000        -1.876896       -51.0729
    2    0           1.0000        -0.084105        -2.2886


  Species: P

  List of occupied orbitals and eigenvalues:
    n    l              occ      energy [Ha]    energy [eV]
    1    0           2.0000       -76.351489     -2077.6297
    2    0           2.0000        -6.353717      -172.8934
    3    0           2.0000        -0.506059       -13.7706
    2    1           6.0000        -4.569386      -124.3393
    3    1           3.0000        -0.198107        -5.3908


  Species: S

  List of occupied orbitals and eigenvalues:
    n    l              occ      energy [Ha]    energy [eV]
    1    0           2.0000       -88.105825     -2397.4815
    2    0           2.0000        -7.730144      -210.3479
    3    0           2.0000        -0.627748       -17.0819
    2    1           6.0000        -5.747971      -156.4103
    3    1           4.0000        -0.255786        -6.9603


  Species: Cl

  List of occupied orbitals and eigenvalues:
    n    l              occ      energy [Ha]    energy [eV]
    1    0           2.0000      -100.709620     -2740.4482
    2    0           2.0000        -9.221874      -250.9399
    3    0           2.0000        -0.753366       -20.5001
    2    1           6.0000        -7.038743      -191.5339
    3    1           5.0000        -0.315359        -8.5813

  Creating fixed part of basis set: Ionic, confined, hydrogenic.
 
  Li                   hydrogenic:
 
  List of hydrogenic basis orbitals: 
    n    l      effective z      eigenvalue [eV]  inner max. [A]     outer max. [A]     outer radius [A]   
    2    1         1.600000        -8.6069           1.303334           1.303334           4.591005
    2    0         2.000000       -13.5631           0.203259           1.385485           4.591005
    3    2         2.600000        -9.9241           1.769240           1.769240           4.591005
 
 
  P                    ion:

  List of free ionic orbitals and eigenvalues:
    n    l      energy [Ha]    energy [eV]
    1    0       -77.297133     -2103.3620
    2    0        -7.273914      -197.9333
    3    0        -1.267536       -34.4914
    2    1        -5.491316      -149.4263
    3    1        -0.913470       -24.8568


  List of ionic basis orbitals and eigenvalues:
    n    l      energy [Ha]    energy [eV]    outer radius [A]
    3    2        -0.457308       -12.4440       4.554583
    3    1        -0.913443       -24.8560       4.337222
    3    0        -1.267519       -34.4910       3.885335

 
  S                    ion:

  List of free ionic orbitals and eigenvalues:
    n    l      energy [Ha]    energy [eV]
    1    0       -89.127201     -2425.2745
    2    0        -8.724378      -237.4024
    3    0        -1.464668       -39.8556
    2    1        -6.744348      -183.5230
    3    1        -1.048520       -28.5317


  List of ionic basis orbitals and eigenvalues:
    n    l      energy [Ha]    energy [eV]    outer radius [A]
    3    2        -0.496135       -13.5005       4.539062
    3    0        -1.464653       -39.8552       3.642502

 
  S                    hydrogenic:
 
  List of hydrogenic basis orbitals: 
    n    l      effective z      eigenvalue [eV]  inner max. [A]     outer max. [A]     outer radius [A]   
    2    1         1.800000       -10.9749           1.168531           1.168531           4.594893
 
 
  Cl                   ion:

  List of free ionic orbitals and eigenvalues:
    n    l      energy [Ha]    energy [eV]
    1    0      -101.807232     -2770.3157
    2    0       -10.290876      -280.0290
    3    0        -1.664625       -45.2967
    2    1        -8.110237      -220.6908
    3    1        -1.183915       -32.2160


  List of ionic basis orbitals and eigenvalues:
    n    l      energy [Ha]    energy [eV]    outer radius [A]
    3    2        -0.529186       -14.3999       4.541334
    3    0        -1.664610       -45.2963       3.428237

 
  Cl                   hydrogenic:
 
  List of hydrogenic basis orbitals: 
    n    l      effective z      eigenvalue [eV]  inner max. [A]     outer max. [A]     outer radius [A]   
    2    1         1.900000       -12.2492           1.113321           1.113321           4.597192
 

  Adding cutoff potential to free-atom effective potential.
  Creating atomic-like basis functions for current effective potential.

  Species Li                  :

  List of atomic basis orbitals and eigenvalues:
    n    l      energy [Ha]    energy [eV]    outer radius [A]
    1    0        -1.876896       -51.0729       4.062706
    2    0        -0.084105        -2.2886       4.591005


  Species P                   :

  List of atomic basis orbitals and eigenvalues:
    n    l      energy [Ha]    energy [eV]    outer radius [A]
    1    0       -76.351489     -2077.6297       0.736837
    2    0        -6.353717      -172.8934       2.532824
    3    0        -0.506059       -13.7706       4.499242
    2    1        -4.569386      -124.3393       2.862183
    3    1        -0.198107        -5.3908       4.554583


  Species S                   :

  List of atomic basis orbitals and eigenvalues:
    n    l      energy [Ha]    energy [eV]    outer radius [A]
    1    0       -88.105825     -2397.4815       0.682391
    2    0        -7.730144      -210.3479       2.317169
    3    0        -0.627748       -17.0819       4.483910
    2    1        -5.747971      -156.4103       2.555240
    3    1        -0.255786        -6.9603       4.539062


  Species Cl                  :

  List of atomic basis orbitals and eigenvalues:
    n    l      energy [Ha]    energy [eV]    outer radius [A]
    1    0      -100.709620     -2740.4482       0.642251
    2    0        -9.221874      -250.9399       2.128190
    3    0        -0.753366       -20.5001       4.431645
    2    1        -7.038743      -191.5339       2.346844
    3    1        -0.315359        -8.5813       4.541334

  Assembling full basis from fixed parts.
  | Species Li :   atomic orbital   1 s accepted.
  | Species Li :   atomic orbital   2 s accepted.
  | Species Li :    hydro orbital   2 s accepted.
  | Species Li :    hydro orbital   2 p accepted.
  | Species Li :    hydro orbital   3 d accepted.
  | Species P :   atomic orbital   1 s accepted.
  | Species P :   atomic orbital   2 s accepted.
  | Species P :    ionic orbital   3 s accepted.
  | Species P :   atomic orbital   3 s accepted.
  | Species P :   atomic orbital   2 p accepted.
  | Species P :    ionic orbital   3 p accepted.
  | Species P :   atomic orbital   3 p accepted.
  | Species P :    ionic orbital   3 d accepted.
  | Species S :   atomic orbital   1 s accepted.
  | Species S :   atomic orbital   2 s accepted.
  | Species S :    ionic orbital   3 s accepted.
  | Species S :   atomic orbital   3 s accepted.
  | Species S :   atomic orbital   2 p accepted.
  | Species S :   atomic orbital   3 p accepted.
  | Species S :    hydro orbital   2 p accepted.
  | Species S :    ionic orbital   3 d accepted.
  | Species Cl :   atomic orbital   1 s accepted.
  | Species Cl :   atomic orbital   2 s accepted.
  | Species Cl :    ionic orbital   3 s accepted.
  | Species Cl :   atomic orbital   3 s accepted.
  | Species Cl :   atomic orbital   2 p accepted.
  | Species Cl :   atomic orbital   3 p accepted.
  | Species Cl :    hydro orbital   2 p accepted.
  | Species Cl :    ionic orbital   3 d accepted.
 
  Basis size parameters after reduction:
  | Total number of radial functions:       29
  | Total number of basis functions :      724
 
  Per-task memory consumption for arrays in subroutine allocate_ext:
  |           7.605768MB.
  Testing on-site integration grid accuracy.
  |  Species  Function  <phi|h_atom|phi> (log., in eV)  <phi|h_atom|phi> (rad., in eV)
           1        1                -51.0729407432                -51.0729328795
           1        2                 -2.3261068990                 -2.3227046518
           1        3                 17.1966930198                 17.2358027191 ***
           1        4                  0.3867256281                  0.3982841734
           1        5                  6.2743141416                  6.2817896417
           2        6              -2077.6297159538              -2077.6288551184
           2        7               -172.8934457906               -172.8934403880
           2        8                -13.4653967551                -13.4655200798
           2        9                  6.4162845277                  6.4013396720
           2       10               -124.3393201040               -124.3393200061
           2       11                 -4.7560266034                 -4.7560495157
           2       12                  6.5873401476                  6.4958904717 ***
           2       13                  5.2911719464                  5.2826493609
           3       14              -2397.4814915323              -2397.4804563634
           3       15               -210.3479335736               -210.3479265952
           3       16                -16.8079362322                -16.8079092816
           3       17                  7.5772439785                  7.5675998324
           3       18               -156.4102581151               -156.4102580951
           3       19                 -6.9617737483                 -6.9640288036
           3       20                  7.5696988470                  7.5151244831 ***
           3       21                  6.0973034823                  6.0928113248
           4       22              -2740.4481953768              -2740.4469735573
           4       23               -250.9399497423               -250.9399403187
           4       24                -20.2462734235                -20.2462512680
           4       25                  8.9460051782                  8.9510436705
           4       26               -191.5339459398               -191.5339455009
           4       27                 -8.5819075957                 -8.5827488985
           4       28                  8.1339828089                  8.0979459360 ***
           4       29                  7.0302175114                  7.0277664253
 * Note: Onsite integrals marked "***" above are less accurate than
 * onsite_accuracy_threshold =    0.03000 eV. Usually, this is harmless.
 * When in doubt, tighten the "radial" and/or "radial_multiplier" flags to check.

  Preparing densities etc. for the partition functions (integrals / Hartree potential).

  Preparations completed.
  max(cpu_time)          :      0.413 s.
  Wall clock time (cpu1) :      0.408 s.
------------------------------------------------------------

------------------------------------------------------------
          Begin self-consistency loop: Initialization.

          Date     :  20220723, Time     :  170447.586
------------------------------------------------------------

  Initializing index lists of integration centers etc. from given atomic structure:
  Mapping all atomic coordinates to central unit cell.

  Initializing the k-points
          Using symmetry for reducing the k-points
  | k-points reduced from:       27 to       14
  | Number of k-points                             :        14
  The eigenvectors in the calculations are COMPLEX.
  | K-points in task   0:         0
  | K-points in task   1:         1
  | K-points in task   2:         1
  | K-points in task   3:         1
  | K-points in task   4:         1
  | K-points in task   5:         1
  | K-points in task   6:         1
  | K-points in task   7:         1
  | K-points in task   8:         1
  | K-points in task   9:         1
  | K-points in task  10:         1
  | K-points in task  11:         1
  | K-points in task  12:         1
  | K-points in task  13:         1
  | K-points in task  14:         1
  | K-points in task  15:         0
  | K-points in task  16:         0
  | K-points in task  17:         0
  | K-points in task  18:         0
  | K-points in task  19:         0
  | Number of basis functions in the Hamiltonian integrals :      3897
  | Number of basis functions in a single unit cell        :       724
  | Number of centers in hartree potential         :      1757
  | Number of centers in hartree multipole         :       937
  | Number of centers in electron density summation:       728
  | Number of centers in basis integrals           :       760
  | Number of centers in integrals                 :       336
  | Number of centers in hamiltonian               :       733
  | Consuming          6 KiB for k_phase.
  | Number of super-cells (origin) [n_cells]                     :         125
  | Number of super-cells (after PM_index) [n_cells]             :          28
  | Number of super-cells in hamiltonian [n_cells_in_hamiltonian]:          28
  | Size of matrix packed + index [n_hamiltonian_matrix_size] :      743732
  Partitioning the integration grid into batches with parallel hashing+maxmin method.
  | Number of batches:     4396
  | Maximal batch size:     170
  | Minimal batch size:      55
  | Average batch size:      81.736
  | Standard deviation of batch sizes:      15.216

  Integration load balanced across    20 MPI tasks.
  Work distribution over tasks is as follows:
  Task     0 has      17926 integration points.
  Task     1 has      17979 integration points.
  Task     2 has      17972 integration points.
  Task     3 has      17962 integration points.
  Task     4 has      17978 integration points.
  Task     5 has      18003 integration points.
  Task     6 has      17974 integration points.
  Task     7 has      17946 integration points.
  Task     8 has      17954 integration points.
  Task     9 has      17954 integration points.
  Task    10 has      17941 integration points.
  Task    11 has      17969 integration points.
  Task    12 has      17983 integration points.
  Task    13 has      17982 integration points.
  Task    14 has      17935 integration points.
  Task    15 has      17963 integration points.
  Task    16 has      17993 integration points.
  Task    17 has      17968 integration points.
  Task    18 has      17936 integration points.
  Task    19 has      17994 integration points.
  Initializing partition tables, free-atom densities, potentials, etc. across the integration grid (initialize_grid_storage).
  | initialize_grid_storage: Actual outermost partition radius vs. multipole_radius_free
  | (-- VB: in principle, multipole_radius_free should be larger, hence this output)
  | Species        1: Confinement radius =              4.999999999999999 AA, multipole_radius_free =              5.001180127821857 AA.
  | Species        1: outer_partition_radius set to              5.001180127821857 AA .
  | Species        2: Confinement radius =              4.999999999999999 AA, multipole_radius_free =              5.022530438398565 AA.
  | Species        2: outer_partition_radius set to              5.022530438398565 AA .
  | Species        3: Confinement radius =              4.999999999999999 AA, multipole_radius_free =              5.005414751018925 AA.
  | Species        3: outer_partition_radius set to              5.005414751018925 AA .
  | Species        4: Confinement radius =              4.999999999999999 AA, multipole_radius_free =              5.007919576009533 AA.
  | Species        4: outer_partition_radius set to              5.007919576009533 AA .
  | Original list of interatomic distances with         760 x        760 entries is created.
  | Net number of integration points:   359312
  | of which are non-zero points    :   323455
  | Numerical average free-atom electrostatic potential    :     -9.55341448 eV
  Renormalizing the initial density to the exact electron count on the 3D integration grid.
  | Initial density: Formal number of electrons (from input files) :     512.0000000000
  | Integrated number of electrons on 3D grid     :     512.0003963096
  | Charge integration error                      :       0.0003963096
  | Normalization factor for density and gradient :       0.9999992260
  Obtaining max. number of non-zero basis functions in each batch (get_n_compute_maxes).
  | Maximal number of non-zero basis functions:      443 in task     0
  | Maximal number of non-zero basis functions:      441 in task     1
  | Maximal number of non-zero basis functions:      440 in task     2
  | Maximal number of non-zero basis functions:      428 in task     3
  | Maximal number of non-zero basis functions:      432 in task     4
  | Maximal number of non-zero basis functions:      427 in task     5
  | Maximal number of non-zero basis functions:      432 in task     6
  | Maximal number of non-zero basis functions:      462 in task     7
  | Maximal number of non-zero basis functions:      431 in task     8
  | Maximal number of non-zero basis functions:      417 in task     9
  | Maximal number of non-zero basis functions:      434 in task    10
  | Maximal number of non-zero basis functions:      425 in task    11
  | Maximal number of non-zero basis functions:      432 in task    12
  | Maximal number of non-zero basis functions:      436 in task    13
  | Maximal number of non-zero basis functions:      458 in task    14
  | Maximal number of non-zero basis functions:      430 in task    15
  | Maximal number of non-zero basis functions:      463 in task    16
  | Maximal number of non-zero basis functions:      427 in task    17
  | Maximal number of non-zero basis functions:      444 in task    18
  | Maximal number of non-zero basis functions:      427 in task    19
  Allocating        0.000 MB for KS_eigenvector_complex
  Integrating Hamiltonian matrix: batch-based integration.
  Time summed over all CPUs for integration: real work       13.043 s, elapsed       13.197 s
  Integrating overlap matrix.
  Time summed over all CPUs for integration: real work        8.832 s, elapsed        8.947 s
  Decreasing sparse matrix size:
   Tolerance:  9.999999824516700E-014
   Hamiltonian matrix
  | Array has   660266 nonzero elements out of   743732 elements
  | Sparsity factor is 0.112
   Overlap matrix
  | Array has   619224 nonzero elements out of   743732 elements
  | Sparsity factor is 0.167
  New size of hamiltonian matrix:      660270

  Updating Kohn-Sham eigenvalues and eigenvectors using ELSI and the ELPA eigensolver.

  Obtaining occupation numbers and chemical potential using ELSI.
  | Chemical potential (Fermi level):    -7.46053086eV
  Writing Kohn-Sham eigenvalues.
  K-point:       1 at    0.000000    0.000000    0.000000 (in units of recip. lattice)

  State    Occupation    Eigenvalue [Ha]    Eigenvalue [eV]
      1       2.00000        -100.753928        -2741.65386
      2       2.00000        -100.732020        -2741.05774
      3       2.00000        -100.729939        -2741.00110
      4       2.00000        -100.728191        -2740.95353
      5       2.00000        -100.724793        -2740.86106
      6       2.00000        -100.724346        -2740.84892
      7       2.00000        -100.723673        -2740.83061
      8       2.00000        -100.722534        -2740.79961
      9       2.00000         -88.167935        -2399.17158
     10       2.00000         -88.161201        -2398.98835
     11       2.00000         -88.156735        -2398.86682
     12       2.00000         -88.144475        -2398.53319
     13       2.00000         -88.141280        -2398.44627
     14       2.00000         -88.138205        -2398.36259
     15       2.00000         -88.137067        -2398.33161
     16       2.00000         -88.136518        -2398.31669
     17       2.00000         -88.136315        -2398.31117
     18       2.00000         -88.135081        -2398.27758
     19       2.00000         -88.133570        -2398.23646
     20       2.00000         -88.128031        -2398.08573
     21       2.00000         -88.126934        -2398.05590
     22       2.00000         -88.123908        -2397.97354
     23       2.00000         -88.122975        -2397.94816
     24       2.00000         -88.121267        -2397.90167
     25       2.00000         -76.395461        -2078.82628
     26       2.00000         -76.389872        -2078.67417
     27       2.00000         -76.378022        -2078.35173
     28       2.00000         -76.377673        -2078.34221
     29       2.00000          -9.268911         -252.21989
     30       2.00000          -9.246156         -251.60072
     31       2.00000          -9.243774         -251.53588
     32       2.00000          -9.241958         -251.48648
     33       2.00000          -9.238460         -251.39129
     34       2.00000          -9.237805         -251.37346
     35       2.00000          -9.237305         -251.35986
     36       2.00000          -9.235909         -251.32188
     37       2.00000          -7.796697         -212.15892
     38       2.00000          -7.789987         -211.97633
     39       2.00000          -7.785559         -211.85583
     40       2.00000          -7.772461         -211.49942
     41       2.00000          -7.768864         -211.40155
     42       2.00000          -7.765833         -211.31907
     43       2.00000          -7.764406         -211.28024
     44       2.00000          -7.763886         -211.26610
     45       2.00000          -7.763697         -211.26095
     46       2.00000          -7.762286         -211.22256
     47       2.00000          -7.760730         -211.18020
     48       2.00000          -7.754960         -211.02320
     49       2.00000          -7.753822         -210.99224
     50       2.00000          -7.750580         -210.90402
     51       2.00000          -7.749639         -210.87841
     52       2.00000          -7.747701         -210.82567
     53       2.00000          -7.086216         -192.82575
     54       2.00000          -7.085202         -192.79815
     55       2.00000          -7.084745         -192.78572
     56       2.00000          -7.063106         -192.19689
     57       2.00000          -7.062688         -192.18552
     58       2.00000          -7.062553         -192.18184
     59       2.00000          -7.060899         -192.13683
     60       2.00000          -7.060326         -192.12125
     61       2.00000          -7.060071         -192.11430
     62       2.00000          -7.059053         -192.08660
     63       2.00000          -7.058601         -192.07430
     64       2.00000          -7.058228         -192.06415
     65       2.00000          -7.055495         -191.98979
     66       2.00000          -7.055144         -191.98023
     67       2.00000          -7.054871         -191.97280
     68       2.00000          -7.054803         -191.97096
     69       2.00000          -7.054429         -191.96079
     70       2.00000          -7.054378         -191.95939
     71       2.00000          -7.054241         -191.95566
     72       2.00000          -7.054068         -191.95095
     73       2.00000          -7.053553         -191.93694
     74       2.00000          -7.052796         -191.91634
     75       2.00000          -7.052638         -191.91204
     76       2.00000          -7.052467         -191.90739
     77       2.00000          -6.405135         -174.29260
     78       2.00000          -6.398830         -174.12103
     79       2.00000          -6.385908         -173.76941
     80       2.00000          -6.385500         -173.75829
     81       2.00000          -5.817750         -158.30902
     82       2.00000          -5.812346         -158.16199
     83       2.00000          -5.811888         -158.14953
     84       2.00000          -5.809039         -158.07200
     85       2.00000          -5.807227         -158.02269
     86       2.00000          -5.805426         -157.97369
     87       2.00000          -5.803878         -157.93156
     88       2.00000          -5.802731         -157.90033
     89       2.00000          -5.801849         -157.87634
     90       2.00000          -5.791147         -157.58512
     91       2.00000          -5.789413         -157.53795
     92       2.00000          -5.788862         -157.52295
     93       2.00000          -5.787485         -157.48547
     94       2.00000          -5.786338         -157.45426
     95       2.00000          -5.785117         -157.42103
     96       2.00000          -5.783999         -157.39063
     97       2.00000          -5.783604         -157.37988
     98       2.00000          -5.782872         -157.35995
     99       2.00000          -5.782799         -157.35797
    100       2.00000          -5.782730         -157.35608
    101       2.00000          -5.782227         -157.34241
    102       2.00000          -5.781915         -157.33391
    103       2.00000          -5.781637         -157.32636
    104       2.00000          -5.781020         -157.30957
    105       2.00000          -5.780954         -157.30776
    106       2.00000          -5.780757         -157.30241
    107       2.00000          -5.780456         -157.29421
    108       2.00000          -5.779740         -157.27472
    109       2.00000          -5.779406         -157.26563
    110       2.00000          -5.779283         -157.26230
    111       2.00000          -5.778323         -157.23617
    112       2.00000          -5.777883         -157.22419
    113       2.00000          -5.777514         -157.21415
    114       2.00000          -5.774287         -157.12635
    115       2.00000          -5.772290         -157.07200
    116       2.00000          -5.771993         -157.06393
    117       2.00000          -5.771511         -157.05082
    118       2.00000          -5.771214         -157.04272
    119       2.00000          -5.770282         -157.01737
    120       2.00000          -5.769316         -156.99106
    121       2.00000          -5.768433         -156.96704
    122       2.00000          -5.767708         -156.94732
    123       2.00000          -5.767361         -156.93787
    124       2.00000          -5.766990         -156.92777
    125       2.00000          -5.766449         -156.91307
    126       2.00000          -5.766184         -156.90586
    127       2.00000          -5.764858         -156.86976
    128       2.00000          -5.764565         -156.86181
    129       2.00000          -4.621142         -125.74767
    130       2.00000          -4.620030         -125.71741
    131       2.00000          -4.619460         -125.70189
    132       2.00000          -4.615060         -125.58217
    133       2.00000          -4.613537         -125.54073
    134       2.00000          -4.613316         -125.53470
    135       2.00000          -4.601333         -125.20865
    136       2.00000          -4.601165         -125.20406
    137       2.00000          -4.600979         -125.19902
    138       2.00000          -4.600966         -125.19864
    139       2.00000          -4.600801         -125.19415
    140       2.00000          -4.600503         -125.18606
    141       2.00000          -1.952313          -53.12515
    142       2.00000          -1.951970          -53.11581
    143       2.00000          -1.934769          -52.64775
    144       2.00000          -1.930517          -52.53204
    145       2.00000          -1.921584          -52.28896
    146       2.00000          -1.900996          -51.72875
    147       2.00000          -1.900329          -51.71057
    148       2.00000          -1.898709          -51.66649
    149       2.00000          -1.897204          -51.62555
    150       2.00000          -1.895882          -51.58956
    151       2.00000          -1.894553          -51.55342
    152       2.00000          -1.893793          -51.53272
    153       2.00000          -1.892594          -51.50010
    154       2.00000          -1.889974          -51.42881
    155       2.00000          -1.886532          -51.33515
    156       2.00000          -1.886346          -51.33008
    157       2.00000          -1.886185          -51.32571
    158       2.00000          -1.885887          -51.31759
    159       2.00000          -1.885523          -51.30768
    160       2.00000          -1.884788          -51.28770
    161       2.00000          -0.838643          -22.82064
    162       2.00000          -0.834024          -22.69494
    163       2.00000          -0.829459          -22.57072
    164       2.00000          -0.804923          -21.90308
    165       2.00000          -0.801975          -21.82284
    166       2.00000          -0.798997          -21.74181
    167       2.00000          -0.796010          -21.66054
    168       2.00000          -0.793908          -21.60334
    169       2.00000          -0.789982          -21.49651
    170       2.00000          -0.787803          -21.43720
    171       2.00000          -0.785812          -21.38302
    172       2.00000          -0.782740          -21.29944
    173       2.00000          -0.754879          -20.54130
    174       2.00000          -0.751664          -20.45382
    175       2.00000          -0.737792          -20.07635
    176       2.00000          -0.728637          -19.82723
    177       2.00000          -0.723396          -19.68462
    178       2.00000          -0.721890          -19.64363
    179       2.00000          -0.716135          -19.48702
    180       2.00000          -0.711462          -19.35986
    181       2.00000          -0.709175          -19.29764
    182       2.00000          -0.705730          -19.20389
    183       2.00000          -0.701563          -19.09050
    184       2.00000          -0.698465          -19.00621
    185       2.00000          -0.576194          -15.67904
    186       2.00000          -0.556773          -15.15056
    187       2.00000          -0.544093          -14.80551
    188       2.00000          -0.533384          -14.51412
    189       2.00000          -0.469462          -12.77471
    190       2.00000          -0.463263          -12.60604
    191       2.00000          -0.458359          -12.47258
    192       2.00000          -0.451821          -12.29469
    193       2.00000          -0.449103          -12.22073
    194       2.00000          -0.442300          -12.03559
    195       2.00000          -0.440722          -11.99266
    196       2.00000          -0.430882          -11.72490
    197       2.00000          -0.428196          -11.65181
    198       2.00000          -0.426824          -11.61448
    199       2.00000          -0.423823          -11.53281
    200       2.00000          -0.417534          -11.36167
    201       2.00000          -0.414647          -11.28311
    202       2.00000          -0.405340          -11.02986
    203       2.00000          -0.402281          -10.94661
    204       2.00000          -0.394190          -10.72645
    205       2.00000          -0.391688          -10.65838
    206       2.00000          -0.390426          -10.62404
    207       2.00000          -0.387762          -10.55155
    208       2.00000          -0.384917          -10.47411
    209       2.00000          -0.384139          -10.45295
    210       2.00000          -0.381721          -10.38717
    211       2.00000          -0.378113          -10.28897
    212       2.00000          -0.377285          -10.26644
    213       2.00000          -0.376082          -10.23371
    214       2.00000          -0.373966          -10.17615
    215       2.00000          -0.372569          -10.13812
    216       2.00000          -0.371122          -10.09876
    217       2.00000          -0.369765          -10.06182
    218       2.00000          -0.368635          -10.03106
    219       2.00000          -0.367040           -9.98767
    220       2.00000          -0.365998           -9.95930
    221       2.00000          -0.363671           -9.89598
    222       2.00000          -0.363231           -9.88403
    223       2.00000          -0.361003           -9.82340
    224       2.00000          -0.358801           -9.76346
    225       2.00000          -0.357502           -9.72811
    226       2.00000          -0.356224           -9.69335
    227       2.00000          -0.354807           -9.65479
    228       2.00000          -0.353867           -9.62920
    229       2.00000          -0.350741           -9.54415
    230       2.00000          -0.349315           -9.50534
    231       2.00000          -0.346860           -9.43853
    232       2.00000          -0.345109           -9.39091
    233       2.00000          -0.344148           -9.36474
    234       2.00000          -0.342224           -9.31239
    235       2.00000          -0.341598           -9.29536
    236       2.00000          -0.339276           -9.23217
    237       2.00000          -0.334026           -9.08930
    238       2.00000          -0.330597           -8.99601
    239       2.00000          -0.329360           -8.96235
    240       2.00000          -0.327448           -8.91030
    241       2.00000          -0.325621           -8.86059
    242       2.00000          -0.324551           -8.83147
    243       2.00000          -0.319717           -8.69993
    244       2.00000          -0.318036           -8.65420
    245       2.00000          -0.314477           -8.55734
    246       2.00000          -0.311693           -8.48159
    247       2.00000          -0.306429           -8.33836
    248       2.00000          -0.304623           -8.28921
    249       2.00000          -0.301761           -8.21133
    250       2.00000          -0.298944           -8.13467
    251       2.00000          -0.297574           -8.09739
    252       2.00000          -0.293274           -7.98039
    253       2.00000          -0.287586           -7.82563
    254       2.00000          -0.284667           -7.74617
    255       2.00000          -0.281242           -7.65298
    256       2.00000          -0.275904           -7.50774
    257       0.00000          -0.189714           -5.16239
    258       0.00000          -0.155746           -4.23806
    259       0.00000          -0.148583           -4.04315
    260       0.00000          -0.143028           -3.89199
    261       0.00000          -0.137119           -3.73119
    262       0.00000          -0.130627           -3.55453
    263       0.00000          -0.124884           -3.39826
    264       0.00000          -0.120407           -3.27644
    265       0.00000          -0.117951           -3.20962
    266       0.00000          -0.116840           -3.17938
    267       0.00000          -0.111944           -3.04615
    268       0.00000          -0.103652           -2.82051
    269       0.00000          -0.096929           -2.63758
    270       0.00000          -0.087396           -2.37817
    271       0.00000          -0.086205           -2.34574
    272       0.00000          -0.082330           -2.24030
    273       0.00000          -0.078095           -2.12508
    274       0.00000          -0.075880           -2.06479
    275       0.00000          -0.069625           -1.89458
    276       0.00000          -0.068769           -1.87129
    277       0.00000          -0.066907           -1.82063
    278       0.00000          -0.063900           -1.73882
    279       0.00000          -0.059300           -1.61365
    280       0.00000          -0.056976           -1.55039
    281       0.00000          -0.055284           -1.50436
    282       0.00000          -0.052034           -1.41592
    283       0.00000          -0.050596           -1.37678
    284       0.00000          -0.046765           -1.27254
    285       0.00000          -0.039593           -1.07739
    286       0.00000          -0.034391           -0.93583
    287       0.00000          -0.032407           -0.88184
    288       0.00000          -0.027063           -0.73642
[...]
    308       0.00000           0.036684            0.99822
    309       0.00000           0.040602            1.10483
    310       0.00000           0.042774            1.16395
    311       0.00000           0.045397            1.23532
    312       0.00000           0.048670            1.32438
    313       0.00000           0.050174            1.36530
    314       0.00000           0.051060            1.38941
    315       0.00000           0.053971            1.46863
    316       0.00000           0.054863            1.49289
    317       0.00000           0.055821            1.51898
    318       0.00000           0.060312            1.64117
    319       0.00000           0.062721            1.70672
    320       0.00000           0.064367            1.75151
    321       0.00000           0.067512            1.83709
    322       0.00000           0.069739            1.89769
    323       0.00000           0.072989            1.98614
    324       0.00000           0.074854            2.03687
    325       0.00000           0.076527            2.08241
    326       0.00000           0.079812            2.17179
    327       0.00000           0.080424            2.18845
    328       0.00000           0.081503            2.21782
    329       0.00000           0.083128            2.26201
    330       0.00000           0.088826            2.41708
    331       0.00000           0.091173            2.48094
    332       0.00000           0.093338            2.53986
    333       0.00000           0.094239            2.56438
    334       0.00000           0.100203            2.72666
    335       0.00000           0.101474            2.76124
    336       0.00000           0.105567            2.87263
    337       0.00000           0.106698            2.90340
    338       0.00000           0.108003            2.93892
    339       0.00000           0.109608            2.98258
    340       0.00000           0.115140            3.13311
    341       0.00000           0.118644            3.22848
    342       0.00000           0.121696            3.31151
    343       0.00000           0.123590            3.36305
    344       0.00000           0.125697            3.42039
    345       0.00000           0.126233            3.43496
    346       0.00000           0.132212            3.59768
    347       0.00000           0.133781            3.64037
    348       0.00000           0.136372            3.71088
    349       0.00000           0.138539            3.76985
    350       0.00000           0.142223            3.87009
    351       0.00000           0.145629            3.96277
    352       0.00000           0.148703            4.04640
    353       0.00000           0.151848            4.13200
    354       0.00000           0.155619            4.23462
    355       0.00000           0.155878            4.24165
    356       0.00000           0.162513            4.42221
    357       0.00000           0.163778            4.45663
    358       0.00000           0.166148            4.52111
    359       0.00000           0.167449            4.55652
    360       0.00000           0.171203            4.65868
    361       0.00000           0.172807            4.70231
    362       0.00000           0.177969            4.84278
    363       0.00000           0.180464            4.91068
    364       0.00000           0.183018            4.98017
    365       0.00000           0.189260            5.15004
    366       0.00000           0.191215            5.20322
    367       0.00000           0.194571            5.29455
    368       0.00000           0.196259            5.34049
    369       0.00000           0.198155            5.39206
    370       0.00000           0.204936            5.57660

  What follows are estimated values for band gap, HOMO, LUMO, etc.
  | They are estimated on a discrete k-point grid and not necessarily exact.
  | For converged numbers, create a DOS and/or band structure plot on a denser k-grid.

  Highest occupied state (VBM) at     -6.29601052 eV (relative to internal zero)
  | Occupation number:      2.00000000
  | K-point:      12 at    0.333333    0.666667    0.666667 (in units of recip. lattice)

  Lowest unoccupied state (CBM) at    -5.35027169 eV (relative to internal zero)
  | Occupation number:      0.00000000
  | K-point:       1 at    0.000000    0.000000    0.000000 (in units of recip. lattice)

  ESTIMATED overall HOMO-LUMO gap:      0.94573884 eV between HOMO at k-point 12 and LUMO at k-point 1
  | This appears to be an indirect band gap.
  | Smallest direct gap :      0.95183057 eV for k_point 1 at    0.000000    0.000000    0.000000 (in units of recip. lattice)
  The gap value is above 0.2 eV. Unless you are using a very sparse k-point grid,
  this system is most likely an insulator or a semiconductor.

  Self-consistency cycle converged.

  End self-consistency iteration #    21       :  max(cpu_time)    wall_clock(cpu1)
  | Time for this iteration                    :       14.368 s          14.368 s
  | Charge density & force component update    :        9.476 s           9.474 s
  | Density mixing                             :        0.007 s           0.007 s
  | Hartree multipole update                   :        0.005 s           0.005 s
  | Hartree multipole summation                :        3.834 s           3.834 s
  | Integration                                :        0.668 s           0.668 s
  | Solution of K.-S. eqns.                    :        0.373 s           0.374 s
  | Total energy evaluation                    :        0.002 s           0.002 s

  Partial memory accounting:
  | Current value for overall tracked memory usage on task 0  :          13.207 MB
  | Peak value for overall tracked memory usage on task 0     :          26.827 MB after allocating wave_pulay
  | Largest tracked array allocation on task 0 so far         :           8.387 MB  when allocating kdm_complex
  Note:  These values currently only include a subset of arrays which are explicitly tracked.
  The "true" memory usage will be greater.
------------------------------------------------------------
  |------------------------------------------
  | Final ELSI Output
  |------------------------------------------
  | Number of basis functions :          724
  | Number of electrons       :        512.0
  | Number of states          :          370
  | Solver                    :         ELPA
  | Parallel mode             :  SINGLE_PROC
  | Matrix format             :  BLACS_DENSE
  |------------------------------------------
  | ELSI Project (c)  elsi-interchange.org
  |------------------------------------------
  Removing unitary transformations (pure translations, rotations) from forces on atoms.
  Atomic forces before filtering:
  | Net force on center of mass :   0.674591E-02 -0.233717E-02 -0.140326E-02 eV/A
  Atomic forces after filtering:
  | Net force on center of mass :  -0.276529E-14  0.535218E-15 -0.535218E-15 eV/A

  Energy and forces in a compact form:
  | Total energy uncorrected      :         -0.314730567085199E+06 eV
  | Total energy corrected        :         -0.314730567085199E+06 eV  <-- do not rely on this value for anything but (periodic) metals
  | Electronic free energy        :         -0.314730567085199E+06 eV
  Total atomic forces (unitary forces cleaned) [eV/Ang]:
  |   1          0.330953173353438E+00          0.191225456506194E+01         -0.597305285121668E+00
  |   2          0.143000039929056E+00         -0.121438720514157E+01          0.120017769363544E+01
  |   3         -0.184320779271448E+00          0.250779942274205E+00         -0.611262224515169E+00
  |   4         -0.501297909061440E-01         -0.322108306209720E+00          0.339965442183533E+00
  |   5          0.751812615507060E-01         -0.160887891261947E+01          0.422747623828604E+00
  |   6          0.178842663981468E-01         -0.491915103833672E+00          0.115515505649568E+00
  |   7          0.100594974860382E+01          0.105075395154674E+01          0.545889007407068E+00
  |   8         -0.802194651334281E+00         -0.148101724737023E+01         -0.905726974425051E+00
  |   9          0.786559131366883E+00          0.118876981426735E+01          0.479703276429975E+00
  |  10          0.166510619847428E+01         -0.126222664872964E+01         -0.932724269227094E+00
  |  11          0.199364953513747E+01          0.189025457618608E+00          0.158431982728245E+01
  |  12         -0.164356795719820E+01          0.455820636014244E-01         -0.580934013989616E+00
  |  13          0.196914907819627E+01          0.207813105683553E+01          0.295800721227262E+00
  |  14         -0.390977179680749E+00         -0.385605076244521E+00          0.114894274618002E+01
  |  15          0.403840480961209E+01         -0.429452231988614E+01          0.496942432432277E+01
  |  16         -0.280213961363063E+00         -0.660287912662812E+00          0.795083446896815E+00
  |  17          0.530949670108518E+00         -0.128999888430916E+01          0.309288803776463E+00
  |  18          0.314950742389506E+01          0.116242469192897E+01         -0.685216399896927E+01
  |  19          0.249963636079244E+00          0.147700227462136E+00         -0.709220574832833E+00
  |  20          0.333975132413358E-01          0.365640812181035E+01          0.155693188802215E+01
  |  21         -0.163368886462770E+01          0.295311679352728E+01          0.243526362251827E+01
  |  22          0.524886598257349E+00          0.477065360213457E+00         -0.206591011193031E+01
  |  23          0.286366980778130E+00         -0.679191467454902E+00         -0.564544078486433E+00
  |  24          0.253206174089903E+00         -0.495609329026407E+01          0.132998986933188E+01
  |  25         -0.425245606588988E+01          0.300627216334928E+01         -0.486987006271946E+01
  |  26         -0.141215244310352E+00         -0.699032797902932E+00         -0.133870082555670E+01
  |  27         -0.372441944642152E+01         -0.147980875922691E+01          0.360493810836857E+01
  |  28          0.693339041672628E+00         -0.137719689295186E+01          0.608071778217918E+00
  |  29          0.183123202564626E-02         -0.306377626442807E+00          0.475105826097727E+00
  |  30         -0.204234146967187E+01         -0.165684538610960E+01          0.179869001639466E+00
  |  31          0.586586386830635E+00         -0.586118883889427E+00          0.100418555997106E+01
  |  32         -0.330698031186672E+00          0.116115830141070E+01         -0.151885017279609E+00
  |  33         -0.662875537566401E+00          0.758934752291577E+00          0.128646453014316E+00
  |  34          0.131328039075995E+00          0.322708998962163E+00          0.599771237784822E-01
  |  35         -0.151048527518895E+00         -0.269512343023598E-01         -0.365585012033401E+00
  |  36          0.618414762959000E+00          0.988836374261822E+00         -0.173202782624934E+00
  |  37          0.243760171132994E-01          0.116463884950247E+01         -0.214393455729794E+01
  |  38          0.110722539848989E+00          0.100889784121731E+01         -0.467484361493077E+00
  |  39         -0.167164606034905E+01          0.248717575523213E+01          0.971868993824928E+00
  |  40         -0.784132408092702E+00         -0.449556472540247E+00          0.533069408091295E+00
  |  41         -0.564567256838680E+00         -0.678188389044749E+00          0.115427452396911E+00
  |  42          0.129567098755777E+00          0.167886672269253E+00         -0.607408502794424E+00
  |  43          0.289473658094074E-01         -0.755310694971777E+00         -0.240705419817258E+00
  |  44          0.606665384091272E+00          0.215592802123409E+00         -0.169048291691791E+00
  |  45         -0.290724938349364E+00         -0.332538473885767E+00          0.652368117546938E+00
  |  46          0.297885347108717E+00          0.578206298378107E+00          0.927593320620284E-01
  |  47          0.122863353607763E-01         -0.428127930282071E+00         -0.501422928274631E-01
  |  48         -0.694846619146869E+00          0.449965061130207E+00         -0.155757229606842E+01

  ------------------------------------ 
  Start decomposition of the XC Energy 
  ------------------------------------ 
  X and C from original XC functional choice 
  Hartree-Fock Energy :          0.000000000 Ha              0.000000000 eV
  X Energy            :       -745.428846382 Ha         -20284.150956300 eV
  C Energy            :        -19.341984639 Ha           -526.322181010 eV
  Total XC Energy     :       -764.770831021 Ha         -20810.473137310 eV
  ------------------------------------ 
  LDA X and C from self-consistent density 
  X Energy LDA        :       -690.068747586 Ha         -18777.726021988 eV
  C Energy LDA        :        -38.823917895 Ha          -1056.452557628 eV
  ------------------------------------ 
  End decomposition of the XC Energy 
  ------------------------------------ 

------------------------------------------------------------

------------------------------------------------------------------------------
  Final output of selected total energy values:

  The following output summarizes some interesting total energy values
  at the end of a run (AFTER all relaxation, molecular dynamics, etc.).

  | Total energy of the DFT / Hartree-Fock s.c.f. calculation      :        -314730.567085199 eV
  | Final zero-broadening corrected energy (caution - metals only) :        -314730.567085199 eV
  | For reference only, the value of 1 Hartree used in FHI-aims is :             27.211384500 eV

  Before relying on these values, please be sure to understand exactly which
  total energy value is referred to by a given number. Different objects may
  all carry the same name 'total energy'. Definitions:

  Total energy of the DFT / Hartree-Fock s.c.f. calculation:
  | Note that this energy does not include ANY quantities calculated after the
  | s.c.f. cycle, in particular not ANY RPA, MP2, etc. many-body perturbation terms.

  Final zero-broadening corrected energy:
  | For metallic systems only, a broadening of the occupation numbers at the Fermi
  | level can be extrapolated back to zero broadening by an electron-gas inspired
  | formula. For all systems that are not real metals, this value can be
  | meaningless and should be avoided.

------------------------------------------------------------------------------
  Methods described in the following list of references were used in this FHI-aims run.
  If you publish the results, please make sure to cite these reference if they apply.
  FHI-aims is an academic code, and for our developers (often, Ph.D. students
  and postdocs), scientific credit in the community is essential.
  Thank you for helping us!

  For any use of FHI-aims, please cite:

    Volker Blum, Ralf Gehrke, Felix Hanke, Paula Havu, Ville Havu,
    Xinguo Ren, Karsten Reuter, and Matthias Scheffler
    'Ab initio molecular simulations with numeric atom-centered orbitals'
    Computer Physics Communications 180, 2175-2196 (2009)
    http://dx.doi.org/10.1016/j.cpc.2009.06.022


  The provided symmetry information was generated with SPGlib:

    Atsushi Togo, Yusuke Seto, Dimitar Pashov
    SPGlib 1.7.3 obtained from http://spglib.sourceforge.net
    Copyright (C) 2008 Atsushi Togo


  The scalable eigensolver library ELPA was used in your run.
  ELPA is essential especially for large systems on hundreds or thousands of CPUs.
  For ELPA, please cite:

    Andreas Marek, Volker Blum, Rainer Johanni, Ville Havu, Bruno Lang,
    Thomas Auckenthaler, Alexander Heinecke, Hans-Joachim Bungartz, and Hermann Lederer,
    'The ELPA Library - Scalable Parallel Eigenvalue Solutions
    for Electronic Structure Theory and Computational Science'
    The Journal of Physics: Condensed Matter 26, 213201 (2014).
    http://dx.doi.org/10.1088/0953-8984/26/21/213201


  The ELSI infrastructure was used in your run to solve the Kohn-Sham electronic structure.
  Please check out http://elsi-interchange.org to learn more.
  If scalability is important for your project, please acknowledge ELSI by citing:

    V. W-z. Yu, F. Corsetti, A. Garcia, W. P. Huhn, M. Jacquelin, W. Jia,
    B. Lange, L. Lin, J. Lu, W. Mi, A. Seifitokaldani, A. Vazquez-Mayagoitia,
    C. Yang, H. Yang, and V. Blum
    'ELSI: A unified software interface for Kohn-Sham electronic structure solvers'
    Computer Physics Communications 222, 267-285 (2018).
    http://dx.doi.org/10.1016/j.cpc.2017.09.007


  For the real-space grid partitioning and parallelization used in this calculation, please cite:

    Ville Havu, Volker Blum, Paula Havu, and Matthias Scheffler,
    'Efficient O(N) integration for all-electron electronic structure calculation'
    'using numerically tabulated basis functions'
    Journal of Computational Physics 228, 8367-8379 (2009).
    http://dx.doi.org/10.1016/j.jcp.2009.08.008

  Of course, there are many other important community references, e.g., those cited in the
  above references. Our list is limited to references that describe implementations in the
  FHI-aims code. The reason is purely practical (length of this list) - please credit others as well.

 * A warning was issued further up regarding the CPU load.
   Some CPUs do not participate in the eigenvalue solution.
   In corner cases, this may be the correct behavior. Otherwise,
   consider using a scalapack/elpa version of the code for a parallel treatment.

------------------------------------------------------------
          Leaving FHI-aims.
          Date     :  20220723, Time     :  170638.842

          Computational steps:
          | Number of self-consistency cycles          :           21
          | Number of SCF (re)initializations          :            1

          Detailed time accounting                     :  max(cpu_time)    wall_clock(cpu1)
          | Total time                                 :      111.742 s         111.765 s
          | Preparation time                           :        0.413 s           0.408 s
          | Boundary condition initalization           :        0.243 s           0.243 s
          | Grid partitioning                          :        0.245 s           0.244 s
          | Preloading free-atom quantities on grid    :        0.009 s           0.008 s
          | Free-atom superposition energy             :        0.137 s           0.137 s
          | Total time for integrations                :       15.199 s          15.200 s
          | Total time for solution of K.-S. equations :        8.390 s           8.394 s
          | Total time for density & force components  :       31.556 s          31.536 s
          | Total time for mixing & preconditioning    :       21.417 s          21.418 s
          | Total time for Hartree multipole update    :        0.099 s           0.102 s
          | Total time for Hartree multipole sum       :       33.262 s          33.261 s
          | Total time for total energy evaluation     :        0.008 s           0.019 s

          Partial memory accounting:
          | Residual value for overall tracked memory usage across tasks :           0.000 MB (should be 0.000 MB)
          | Peak values for overall tracked memory usage (after allocating wave_pulay):
          |   Minimum:       26.280 MB (on task 18)
          |   Maximum:       51.058 MB (on task  2)
          |   Average:       43.748 MB
          | Largest tracked array allocation (kdm_complex):
          |   Minimum:        8.387 MB (on task  1)
          |   Maximum:        8.387 MB (on task  1)
          |   Average:        8.387 MB
          Note:  These values currently only include a subset of arrays which are explicitly tracked.
          The "true" memory usage will be greater.

          Have a nice day.
------------------------------------------------------------
