  MPI-parallelism will be employed.
------------------------------------------------------------
          Invoking FHI-aims ...
          Version 171221_1
          Compiled on 2020/09/23 at 19:46:43 on host login.service.

          When using FHI-aims, please cite the following reference:

          Volker Blum, Ralf Gehrke, Felix Hanke, Paula Havu,
          Ville Havu, Xinguo Ren, Karsten Reuter, and Matthias Scheffler,
          'Ab Initio Molecular Simulations with Numeric Atom-Centered Orbitals',
          Computer Physics Communications 180, 2175-2196 (2009)

          For any questions about FHI-aims, please visit the aimsclub website
          with its forums and wiki. Contributions to both the forums and the
          wiki are warmly encouraged - they are for you, and everyone is welcome there.

------------------------------------------------------------



  Date     :  20220324, Time     :  033144.466
  Time zero on CPU 1             :   0.837620000000000E-01  s.
  Internal wall clock time zero  :           417324704.466  s.

  FHI-aims created a unique identifier for this run for later identification
  aims_uuid : 983A2418-F733-477A-A9EB-8BF9178D5859

  Using       20 parallel tasks.
  Task        0 on host node010 reporting.
  Task        1 on host node010 reporting.
  Task        2 on host node010 reporting.
  Task        3 on host node010 reporting.
  Task        4 on host node010 reporting.
  Task        5 on host node010 reporting.
  Task        6 on host node010 reporting.
  Task        7 on host node010 reporting.
  Task        8 on host node010 reporting.
  Task        9 on host node010 reporting.
  Task       10 on host node010 reporting.
  Task       11 on host node010 reporting.
  Task       12 on host node010 reporting.
  Task       13 on host node010 reporting.
  Task       14 on host node010 reporting.
  Task       15 on host node010 reporting.
  Task       16 on host node010 reporting.
  Task       17 on host node010 reporting.
  Task       18 on host node010 reporting.
  Task       19 on host node010 reporting.

  Performing system and environment tests:
  *** Environment variable OMP_NUM_THREADS is not set
  *** For performance reasons you might want to set it to 1
  | Maximum stacksize for task 0: unlimited
  | Maximum stacksize for task 1: unlimited
  | Maximum stacksize for task 2: unlimited
  | Maximum stacksize for task 3: unlimited
  | Maximum stacksize for task 4: unlimited
  | Maximum stacksize for task 5: unlimited
  | Maximum stacksize for task 6: unlimited
  | Maximum stacksize for task 7: unlimited
  | Maximum stacksize for task 8: unlimited
  | Maximum stacksize for task 9: unlimited
  | Maximum stacksize for task 10: unlimited
  | Maximum stacksize for task 11: unlimited
  | Maximum stacksize for task 12: unlimited
  | Maximum stacksize for task 13: unlimited
  | Maximum stacksize for task 14: unlimited
  | Maximum stacksize for task 15: unlimited
  | Maximum stacksize for task 16: unlimited
  | Maximum stacksize for task 17: unlimited
  | Maximum stacksize for task 18: unlimited
  | Maximum stacksize for task 19: unlimited
  | Current stacksize for task 0: unlimited
  | Current stacksize for task 1: unlimited
  | Current stacksize for task 2: unlimited
  | Current stacksize for task 3: unlimited
  | Current stacksize for task 4: unlimited
  | Current stacksize for task 5: unlimited
  | Current stacksize for task 6: unlimited
  | Current stacksize for task 7: unlimited
  | Current stacksize for task 8: unlimited
  | Current stacksize for task 9: unlimited
  | Current stacksize for task 10: unlimited
  | Current stacksize for task 11: unlimited
  | Current stacksize for task 12: unlimited
  | Current stacksize for task 13: unlimited
  | Current stacksize for task 14: unlimited
  | Current stacksize for task 15: unlimited
  | Current stacksize for task 16: unlimited
  | Current stacksize for task 17: unlimited
  | Current stacksize for task 18: unlimited
  | Current stacksize for task 19: unlimited
  | Checking for scalapack...
  | Testing pdtran()...
  | All pdtran() tests passed.

  Obtaining array dimensions for all initial allocations:
  
  -----------------------------------------------------------------------
  Parsing control.in (first pass over file, find array dimensions only).
  The contents of control.in will be repeated verbatim below
  unless switched off by setting 'verbatim_writeout .false.' .
  in the first line of control.in .
  -----------------------------------------------------------------------
  
  #===============================================================================
  # FHI-aims file: ./control.in
  # Created using the Atomic Simulation Environment (ASE)
  # Wed Mar 24 12:41:28 2021
  #===============================================================================
  xc                                 pbe
  sc_accuracy_etot                   1e-06
  sc_accuracy_eev                    0.001
  sc_accuracy_rho                    1e-06
  sc_accuracy_forces                 0.0001
  friction_temperature               300  # default 300
  
    k_grid                             5 5 5
  
  ################################################################################
  #
  #  FHI-aims code project
  # Volker Blum, Fritz Haber Institute Berlin, 2009
  #
  #  Suggested "tight" defaults for Li atom (to be pasted into control.in file)
  #
  #  2016/03/22: Increased cutoff radius to 5.0 AA (Xinguo Ren, Aug 15, 2015)
  #
  ################################################################################
    species        Li
  #     global species definitions
      nucleus             3
      mass                6.941
  #
      l_hartree           6
  #
      cut_pot             5.0  2.0  1.0
      basis_dep_cutoff    1e-4
  #
      radial_base         29 7.0
      radial_multiplier   2
      angular_grids       specified
        division   0.4484  110
        division   0.5659  194
        division   0.6315  302
        division   0.6662  434
  #      division   0.8186  590
  #      division   0.9037  770
  #      division   6.2760  974
  #      outer_grid   974
        outer_grid  434
  ################################################################################
  #
  #  Definition of "minimal" basis
  #
  ################################################################################
  #     valence basis states
      valence      2  s   1.
  #     ion occupancy
      ion_occ      1  s   2.
  ################################################################################
  #
  #  Suggested additional basis functions. For production calculations,
  #  uncomment them one after another (the most important basis functions are
  #  listed first).
  #
  #  Constructed for dimers: 1.80 A, 2.25 A, 2.75 A, 3.50 A, 4.50 A
  #
  ################################################################################
  #  "First tier" - improvements: -189.23 meV to -6.35 meV
       hydro 2 p 1.6
       hydro 2 s 2
       hydro 3 d 2.6
  #  "Second tier" - improvements: -4.69 meV to -0.41 meV
       hydro 3 p 4.6
       hydro 2 p 1.8
       hydro 3 s 6.2
       hydro 4 d 4.7
       hydro 4 f 4.1
  #  "Third tier" - improvements: -0.20 meV to -0.15 meV
  #     hydro 4 d 0.95
  #     hydro 3 p 6.2
  #     hydro 3 s 1.7
  #  Further functions, listed for completeness
  #     VB: The following functions are only listed for completeness; test very
  #         carefully before any kind of production use. From the point of view
  #         of the basis construction, their main role is to fill up space,
  #         and they are solely determined by the location of the cutoff potential.
  #     hydro 3 p 0.1  # -0.15 meV
  #     hydro 4 d 5    # -0.12 meV
  #     hydro 4 f 0.1  # -0.14 meV
  #     hydro 5 g 0.1  # -0.06 meV
  
  
  ################################################################################
  #
  # For methods that use the localized form of the "resolution of identity" for
  # the two-electron Coulomb operator (RI_method LVL), particularly Hartree-Fock and
  # hybrid density functional calculations, the highest accuracy can be obtained by
  # uncommenting the line beginning with "for_aux"  below, thus adding an extra g radial
  # function to the construction of the product basis set for the expansion.
  # See Ref. New J. Phys. 17, 093020 (2015) for more information, particularly Figs. 1 and 6.
  #
  ################################################################################
  #
  # for_aux hydro 5 g 6.0
  ################################################################################
  #
  #  FHI-aims code project
  # Volker Blum, Fritz Haber Institute Berlin, 2010
  #
  #  Suggested "tight" defaults for P atom (to be pasted into control.in file)
  #
  #  Revised Jan 04, 2011, following tests (SiC) done by Lydia Nemec:
  #     d function of tier 2 now enabled by default.
  #
  ################################################################################
    species        P
  #     global species definitions
      nucleus             15
      mass                30.973762
  #
      l_hartree           6
  #
      cut_pot             4.0          2.0  1.0
      basis_dep_cutoff    1e-4
  #
      radial_base         43 7.0
      radial_multiplier   2
      angular_grids       specified
        division   0.2995   50
        division   0.5998  110
        division   0.9240  194
        division   1.0921  302
        division   1.2863  434
  #      division   1.3165  590
  #      division   1.4113  770
  #      division   1.5128  974
  #      division   2.4980 1202
        outer_grid  434
  ################################################################################
  #
  #  Definition of "minimal" basis
  #
  ################################################################################
  #     valence basis states
      valence      3  s   2.
      valence      3  p   3.
  #     ion occupancy
      ion_occ      3  s   1.
      ion_occ      3  p   2.
  ################################################################################
  #
  #  Suggested additional basis functions. For production calculations,
  #  uncomment them one after another (the most important basis functions are
  #  listed first).
  #
  #  Constructed for dimers: 1.625 A, 1.875 A, 2.5 A, 3.25 A, 4.0 A
  #
  ################################################################################
  #  "First tier" - improvements: -726.20 meV to -35.91 meV
       ionic 3 d auto
       ionic 3 p auto
       hydro 4 f 6.2
       hydro 5 g 8.6
       ionic 3 s auto
  #  "Second tier" - improvements: -16.02 meV to -1.71 meV
       hydro 4 d 6.2
  #     hydro 4 p 9.2
  #     hydro 5 f 9.8
  #     hydro 1 s 0.7
  #     hydro 5 g 13.2
  #  "Third tier" - improvements: -1.82 meV to -0.20 meV
  #     hydro 3 p 2.5
  #     hydro 4 d 6.4
  #     hydro 5 f 11.2
  #     hydro 2 s 1.5
  #  "Fourth tier" - improvements: -0.91 meV to -0.17 meV
  #     hydro 3 d 16.8
  #     hydro 5 g 18
  #     hydro 4 p 4.5
  #     hydro 3 s 2.1
  #  Further basis functions that fell out of the optimization - < -0.09 meV
  #     hydro 4 p 10.4
  #     hydro 4 d 17.6
  #     hydro 4 s 11.2
  ################################################################################
  #
  # For methods that use the localized form of the "resolution of identity" for
  # the two-electron Coulomb operator (RI_method LVL), particularly Hartree-Fock and
  # hybrid density functional calculations, the highest accuracy can be obtained by
  # uncommenting the line beginning with "for_aux"  below, thus adding an extra g radial
  # function to the construction of the product basis set for the expansion.
  # See Ref. New J. Phys. 17, 093020 (2015) for more information, particularly Figs. 1 and 6.
  #
  ################################################################################
  #
  # for_aux hydro 5 g 6.0
  ################################################################################
  #
  #  FHI-aims code project
  # Volker Blum, Fritz Haber Institute Berlin, 2009
  #
  #  Suggested "tight" defaults for S atom (to be pasted into control.in file)
  #
  #  Revised Jan 04, 2011, following tests (SiC) done by Lydia Nemec:
  #     d and g functions of tier 2 now enabled by default.
  #
  ################################################################################
    species        S
  #     global species definitions
      nucleus             16
      mass                32.065
  #
      l_hartree           6
  #
      cut_pot             4.0          2.0  1.0
      basis_dep_cutoff    1e-4
  #
      radial_base         44 7.0
      radial_multiplier   2
      angular_grids       specified
        division   0.4665  110
        division   0.5810  194
        division   0.7139  302
        division   0.8274  434
  #      division   0.9105  590
  #      division   1.0975  770
  #      division   1.2028  974
  #      outer_grid  974
        outer_grid  434
  ################################################################################
  #
  #  Definition of "minimal" basis
  #
  ################################################################################
  #     valence basis states
      valence      3  s   2.
      valence      3  p   4.
  #     ion occupancy
      ion_occ      3  s   1.
      ion_occ      3  p   3.
  ################################################################################
  #
  #  Suggested additional basis functions. For production calculations,
  #  uncomment them one after another (the most important basis functions are
  #  listed first).
  #
  #  Constructed for dimers: 1.6 A, 1.9 A, 2.5 A, 3.25 A, 4.0 A
  #
  ################################################################################
  #  "First tier" - improvements: -652.81 meV to -45.53 meV
       ionic 3 d auto
       hydro 2 p 1.8
       hydro 4 f 7
       ionic 3 s auto
  #  "Second tier" - improvements: -30.20 meV to -1.74 meV
       hydro 4 d 6.2
       hydro 5 g 10.8
  #     hydro 4 p 4.9
  #     hydro 5 f 10
  #     hydro 1 s 0.8
  #  "Third tier" - improvements: -1.04 meV to -0.20 meV
  #     hydro 3 d 3.9
  #     hydro 3 d 2.7
  #     hydro 5 g 12
  #     hydro 4 p 10.4
  #     hydro 5 f 12.4
  #     hydro 2 s 1.9
  #  "Fourth tier" - improvements: -0.35 meV to -0.06 meV
  #     hydro 4 d 10.4
  #     hydro 4 p 7.2
  #     hydro 4 d 10
  #     hydro 5 g 19.2
  #     hydro 4 s 12
  
  ################################################################################
  #
  # For methods that use the localized form of the "resolution of identity" for
  # the two-electron Coulomb operator (RI_method LVL), particularly Hartree-Fock and
  # hybrid density functional calculations, the highest accuracy can be obtained by
  # uncommenting the line beginning with "for_aux"  below, thus adding an extra g radial
  # function to the construction of the product basis set for the expansion.
  # See Ref. New J. Phys. 17, 093020 (2015) for more information, particularly Figs. 1 and 6.
  #
  ################################################################################
  #
  # for_aux hydro 5 g 6.0
  ################################################################################
  #
  #  FHI-aims code project
  # Volker Blum, Fritz Haber Institute Berlin, 2009
  #
  #  Suggested "tight" defaults for Cl atom (to be pasted into control.in file)
  #
  #  Revised Jan 04, 2011, following tests (SiC) done by Lydia Nemec:
  #     d function of tier 2 now enabled by default.
  #
  ################################################################################
    species        Cl
  #     global species definitions
      nucleus             17
      mass                35.453
  #
      l_hartree           6
  #
      cut_pot             4.0          2.0  1.0
      basis_dep_cutoff    1e-4
  #
      radial_base         45 7.0
      radial_multiplier   2
      angular_grids       specified
        division   0.4412  110
        division   0.5489  194
        division   0.6734  302
        division   0.7794  434
  #      division   0.9402  590
  #      division   1.0779  770
  #      division   1.1792  974
  #      outer_grid  974
        outer_grid  434
  ################################################################################
  #
  #  Definition of "minimal" basis
  #
  ################################################################################
  #     valence basis states
      valence      3  s   2.
      valence      3  p   5.
  #     ion occupancy
      ion_occ      3  s   1.
      ion_occ      3  p   4.
  ################################################################################
  #
  #  Suggested additional basis functions. For production calculations,
  #  uncomment them one after another (the most important basis functions are
  #  listed first).
  #
  #  Constructed for dimers: 1.65 A, 2.0 A, 2.5 A, 3.25 A, 4.0 A
  #
  ################################################################################
  #  "First tier" - improvements: -429.57 meV to -15.03 meV
       ionic 3 d auto
       hydro 2 p 1.9
       hydro 4 f 7.4
       ionic 3 s auto
       hydro 5 g 10.4
  #  "Second tier" - improvements: -7.84 meV to -0.48 meV
       hydro 3 d 3.3
  #     hydro 5 f 9.8
  #     hydro 1 s 0.75
  #     hydro 5 g 11.2
  #     hydro 4 p 10.4
  #  "Third tier" - improvements: -1.00 meV to -0.12 meV
  #     hydro 4 d 12.8
  #     hydro 4 f 4.6
  #     hydro 4 d 10.8
  #     hydro 2 s 1.8
  #     hydro 3 p 3
  #  Further functions that fell out - improvements: -0.10 meV and below
  #     hydro 5 f 14.4
  #     hydro 4 s 12.8
  #     hydro 3 d 11.6
  #     hydro 4 s 4.1
  ################################################################################
  #
  # For methods that use the localized form of the "resolution of identity" for
  # the two-electron Coulomb operator (RI_method LVL), particularly Hartree-Fock and
  # hybrid density functional calculations, the highest accuracy can be obtained by
  # uncommenting the line beginning with "for_aux"  below, thus adding an extra g radial
  # function to the construction of the product basis set for the expansion.
  # See Ref. New J. Phys. 17, 093020 (2015) for more information, particularly Figs. 1 and 6.
  #
  ################################################################################
  #
  # for_aux hydro 5 g 6.0
  ################################################################################
  #
  #  FHI-aims code project
  # Volker Blum, Fritz Haber Institute Berlin, 2009
  #
  #  Suggested "tight" defaults for Ge atom (to be pasted into control.in file)
  #
  ################################################################################
    species        Ge
  #     global species definitions
      nucleus             32
      mass                72.64
  #
      l_hartree           6
  #
      cut_pot             4.0          2.0  1.0
      basis_dep_cutoff    1e-4
  #
      radial_base         54 7.0
      radial_multiplier   2
      angular_grids       specified
        division   0.0947  110
        division   0.1314  194
        division   0.7746  302
        division   0.8710  434
  #      division   0.9770  590
  #      division   1.1356  770
  #      division   2.6430  974
  #      outer_grid  974
        outer_grid  434
  ################################################################################
  #
  #  Definition of "minimal" basis
  #
  ################################################################################
  #     valence basis states
      valence      4  s   2.
      valence      4  p   2.
      valence      3  d  10.
  #     ion occupancy
      ion_occ      4  s   1.
      ion_occ      4  p   1.
      ion_occ      3  d  10.
  ################################################################################
  #
  #  Suggested additional basis functions. For production calculations,
  #  uncomment them one after another (the most important basis functions are
  #  listed first).
  #
  #  Constructed for dimers: 1.80 A, 2.00 A, 2.35 A, 3.00 A, 4.00 A
  #
  ################################################################################
  #  "First tier" - improvements: -329.04 meV to -37.61 meV
       hydro 2 p 1.4
       hydro 3 d 4.3
       hydro 4 f 7.4
       hydro 3 s 3.4
  #  "Second tier" - improvements: -13.91 meV to -1.23 meV
  #     hydro 5 g 10.8
  #     hydro 3 d 2.5
  #     hydro 3 p 3.3
  #     hydro 4 f 12
  #     hydro 6 h 15.6
  #     hydro 3 s 7.2
  #  "Third tier" - improvements: -1.47 meV to -0.40 meV
  #     hydro 3 d 5.8
  #     hydro 4 f 4.3
  #     hydro 5 g 11.6
  #     hydro 5 s 14.8
  #     hydro 4 p 3.9
  #  "Fourth tier"  -improvements: -0.39 meV to -0.11 meV
  #     hydro 4 f 23.2
  #     hydro 2 s 6.2
  #     hydro 5 d 9.8
  #     hydro 5 p 6
  #     hydro 6 h 14.8
  #  Further functions - -0.13 meV and below
  #     hydro 5 f 9.6
  
  -----------------------------------------------------------------------
  Completed first pass over input file control.in .
  -----------------------------------------------------------------------
  
  
  -----------------------------------------------------------------------
  Parsing geometry.in (first pass over file, find array dimensions only).
  The contents of geometry.in will be repeated verbatim below
  unless switched off by setting 'verbatim_writeout .false.' .
  in the first line of geometry.in .
  -----------------------------------------------------------------------
  
  #=======================================================
  # FHI-aims file: /home/gz_fan/Downloads/software/fhiaims/fhiaims/work/test_band/Li5PS4Cl2/volscan/geometry.in.6
  # Created using the Atomic Simulation Environment (ASE)
  # Wed Mar 23 23:26:31 2022
  #=======================================================
  lattice_vector 9.9969797611350000 0.0000000000000000 0.0000000000000000
  lattice_vector 0.0000000000000000 9.9969797611350000 0.0000000000000000
  lattice_vector 0.0000000000000000 0.0000000000000000 9.9969797611350000
  atom 3.0997067298788634 0.2831496571889988 6.7228315862093861 Li
  atom 3.3098201587808185 0.0201825959372565 2.9667483212251380 Li
  atom 6.8302668923326531 3.1687478630329484 0.2926802749262324 Li
  atom 7.0274229966720148 6.7956946472783866 -0.0147122709970436 Li
  atom 0.3196287438795263 6.8775788669746110 3.2139633908203105 Li
  atom 9.6541348832175728 6.7281389981687205 6.9212973917090244 Li
  atom -0.1084831809876374 3.1640268307275008 6.8220793117153837 Li
  atom 3.5920411321811216 5.2422581003533066 1.6753041956302368 Li
  atom 6.7795133298811514 8.2090370940961499 5.1908676468110810 Li
  atom 6.4953595309858603 1.7710411188199306 4.7129038456313790 Li
  atom 3.1436933974926307 7.7870973791668074 4.8169375474531853 Li
  atom 0.0241072244705512 2.1415858928470661 2.0410345870289630 Li
  atom 8.0555296292251626 0.0155565764125741 1.7594358617421804 Li
  atom 8.1896817970653899 9.9169458930114871 8.2493557082400422 Li
  atom 2.2493142940555315 3.8598092675713680 5.0978196097433193 Li
  atom 4.7362132716715255 3.3372529455371156 7.8923098915971854 Li
  atom 8.0338469110439288 4.6845808649135234 3.5399378432685986 Li
  atom 1.7008990558651940 8.4084771251583632 0.1708617168849374 Li
  atom 1.7845223409713511 1.9979784847296536 9.6094824973132003 Li
  atom 4.9115594462446861 6.8063418286573203 7.9797956121221976 Li
  atom 0.0082425483445838 -0.0119089954881203 4.9674897728791070 P
  atom 4.9419146145330473 0.0610580828917778 -0.1353593983832152 P
  atom 0.0515195741271319 5.0392761266406776 0.0786509702001488 P
  atom 5.1077772093990381 4.9201618314226003 4.8663673754103662 P
  atom 1.1621233573981338 8.7288136988433056 6.1617787421652368 S
  atom 8.6825154141269110 1.1174719209739350 6.1167980165499447 S
  atom 8.8142998214415602 8.7696209087396220 3.7589770728220158 S
  atom 1.2789802265874999 1.2420028942616326 3.9150306349223492 S
  atom 6.1379723544905529 1.3057550784213157 8.6806633220193437 S
  atom 6.0725084590330987 8.8244470975138896 1.0790896565221859 S
  atom 3.7130427482476502 8.8640720930027790 8.6567236105013698 S
  atom 3.7339312668428346 1.3036033426690126 0.9831961094947927 S
  atom 8.8107098048170762 6.0177894658878603 1.4589519899970196 S
  atom 1.0761056927408201 6.3735610759922023 8.8904414566111001 S
  atom 8.8412638137485615 3.8189771568151172 8.9269186730414667 S
  atom 1.4349735166148323 3.9185791129078251 1.1745035894175382 S
  atom 6.1426520951965182 6.3131602766142132 3.7558827591575232 S
  atom 6.3883005068462788 3.8301109636724808 6.0716406553301852 S
  atom 4.1266717467922787 3.6479657968239945 3.5620689157535601 S
  atom 3.6652149005079648 5.8178684889789736 6.1084682266146499 S
  atom 2.3904887972189166 2.5186116947859110 7.3266103954429207 Cl
  atom 7.3865676952670150 7.6147776415937738 7.5591747719752984 Cl
  atom 4.7840742513266319 -0.2350609608387378 4.9418823686264721 Cl
  atom 5.2131390261017589 5.0808872125436961 -0.2609261861278218 Cl
  atom -0.0502259193935492 0.2628427567072822 0.1680437435346565 Cl
  atom 0.0303426922966938 5.0066442615154942 5.0735348185845917 Cl
  atom 7.6723511713458272 2.3754270373360442 2.4967386751188960 Cl
  atom 2.4963213655477494 7.6001377508179662 2.4867102064270736 Cl
  
  -----------------------------------------------------------------------
  Completed first pass over input file geometry.in .
  -----------------------------------------------------------------------
  

  Basic array size parameters:
  | Number of species                 :        5
  | Number of atoms                   :       48
  | Number of lattice vectors         :        3
  | Max. basis fn. angular momentum   :        4
  | Max. atomic/ionic basis occupied n:        4
  | Max. number of basis fn. types    :        3
  | Max. radial fns per species/type  :        8
  | Max. logarithmic grid size        :     1414
  | Max. radial integration grid size :      109
  | Max. angular integration grid size:      434
  | Max. angular grid division number :        8
  | Radial grid for Hartree potential :     1414
  | Number of spin channels           :        1

------------------------------------------------------------
          Reading file control.in.
------------------------------------------------------------
  XC: Using PBE gradient-corrected functionals.
  Convergence accuracy of total energy:  0.1000E-05
  Convergence accuracy of sum of eigenvalues:  0.1000E-02
  Convergence accuracy of self-consistent charge density:  0.1000E-05
  Convergence accuracy of forces:  0.1000E-03
  Friction is calculated at temperature of   0.3000E+03 K
  Found k-point grid:         5         5         5
 
  Reading configuration options for species Li                  .
  | Found nuclear charge :   3.0000
  | Found atomic mass :    6.94100000000000      amu
  | Found l_max for Hartree potential  :   6
  | Found cutoff potl. onset [A], width [A], scale factor :    5.00000    2.00000    1.00000
  | Threshold for basis-dependent cutoff potential is   0.100000E-03
  | Found data for basic radial integration grid :    29 points, outermost radius =    7.000 A
  | Found multiplier for basic radial grid :   2
  | Found angular grid specification: user-specified.
  | Specified grid contains     5 separate shells.
  | Check grid settings after all constraints further below.
  | Found free-atom valence shell :  2 s   1.000
  | Found free-ion valence shell :  1 s   2.000
  | Found hydrogenic basis function :  2 p   1.600
  | Found hydrogenic basis function :  2 s   2.000
  | Found hydrogenic basis function :  3 d   2.600
  | Found hydrogenic basis function :  3 p   4.600
  | Found hydrogenic basis function :  2 p   1.800
  | Found hydrogenic basis function :  3 s   6.200
  | Found hydrogenic basis function :  4 d   4.700
  | Found hydrogenic basis function :  4 f   4.100
  Species Li                  : Missing cutoff potential type.
  Defaulting to exp(1/x)/(1-x)^2 type cutoff potential.
  Species Li: No 'logarithmic' tag. Using default grid for free atom:
  | Default logarithmic grid data [bohr] : 0.1000E-03 0.1000E+03 0.1012E+01
  Species Li: On-site basis accuracy parameter (for Gram-Schmidt orthonormalisation) not specified.
  Using default value basis_acc =  0.1000000E-03.
  Species Li                  : Using default innermost maximum threshold i_radial=  2 for radial functions.
  Species Li                  : Default cutoff onset for free atom density etc. : 0.50000000E+01 AA.
  Species Li                  : Basic radial grid will be enhanced according to radial_multiplier =   2, to contain    59 grid points.
 
  Reading configuration options for species P                   .
  | Found nuclear charge :  15.0000
  | Found atomic mass :    30.9737620000000      amu
  | Found l_max for Hartree potential  :   6
  | Found cutoff potl. onset [A], width [A], scale factor :    4.00000    2.00000    1.00000
  | Threshold for basis-dependent cutoff potential is   0.100000E-03
  | Found data for basic radial integration grid :    43 points, outermost radius =    7.000 A
  | Found multiplier for basic radial grid :   2
  | Found angular grid specification: user-specified.
  | Specified grid contains     6 separate shells.
  | Check grid settings after all constraints further below.
  | Found free-atom valence shell :  3 s   2.000
  | Found free-atom valence shell :  3 p   3.000
  | Found free-ion valence shell :  3 s   1.000
  | Found free-ion valence shell :  3 p   2.000
  | Found ionic basis function :  3 d , default cutoff radius.
  | Found ionic basis function :  3 p , default cutoff radius.
  | Found hydrogenic basis function :  4 f   6.200
  | Found hydrogenic basis function :  5 g   8.600
  | Found ionic basis function :  3 s , default cutoff radius.
  | Found hydrogenic basis function :  4 d   6.200
  Species P                   : Missing cutoff potential type.
  Defaulting to exp(1/x)/(1-x)^2 type cutoff potential.
  Species P : No 'logarithmic' tag. Using default grid for free atom:
  | Default logarithmic grid data [bohr] : 0.1000E-03 0.1000E+03 0.1012E+01
  | Will include ionic basis functions of  2.0-fold positive P                    ion.
  Species P : On-site basis accuracy parameter (for Gram-Schmidt orthonormalisation) not specified.
  Using default value basis_acc =  0.1000000E-03.
  Species P                   : Using default innermost maximum threshold i_radial=  2 for radial functions.
  Species P                   : Default cutoff onset for free atom density etc. : 0.40000000E+01 AA.
  Species P                   : Basic radial grid will be enhanced according to radial_multiplier =   2, to contain    87 grid points.
 
  Reading configuration options for species S                   .
  | Found nuclear charge :  16.0000
  | Found atomic mass :    32.0650000000000      amu
  | Found l_max for Hartree potential  :   6
  | Found cutoff potl. onset [A], width [A], scale factor :    4.00000    2.00000    1.00000
  | Threshold for basis-dependent cutoff potential is   0.100000E-03
  | Found data for basic radial integration grid :    44 points, outermost radius =    7.000 A
  | Found multiplier for basic radial grid :   2
  | Found angular grid specification: user-specified.
  | Specified grid contains     5 separate shells.
  | Check grid settings after all constraints further below.
  | Found free-atom valence shell :  3 s   2.000
  | Found free-atom valence shell :  3 p   4.000
  | Found free-ion valence shell :  3 s   1.000
  | Found free-ion valence shell :  3 p   3.000
  | Found ionic basis function :  3 d , default cutoff radius.
  | Found hydrogenic basis function :  2 p   1.800
  | Found hydrogenic basis function :  4 f   7.000
  | Found ionic basis function :  3 s , default cutoff radius.
  | Found hydrogenic basis function :  4 d   6.200
  | Found hydrogenic basis function :  5 g  10.800
  Species S                   : Missing cutoff potential type.
  Defaulting to exp(1/x)/(1-x)^2 type cutoff potential.
  Species S : No 'logarithmic' tag. Using default grid for free atom:
  | Default logarithmic grid data [bohr] : 0.1000E-03 0.1000E+03 0.1012E+01
  | Will include ionic basis functions of  2.0-fold positive S                    ion.
  Species S : On-site basis accuracy parameter (for Gram-Schmidt orthonormalisation) not specified.
  Using default value basis_acc =  0.1000000E-03.
  Species S                   : Using default innermost maximum threshold i_radial=  2 for radial functions.
  Species S                   : Default cutoff onset for free atom density etc. : 0.40000000E+01 AA.
  Species S                   : Basic radial grid will be enhanced according to radial_multiplier =   2, to contain    89 grid points.
 
  Reading configuration options for species Cl                  .
  | Found nuclear charge :  17.0000
  | Found atomic mass :    35.4530000000000      amu
  | Found l_max for Hartree potential  :   6
  | Found cutoff potl. onset [A], width [A], scale factor :    4.00000    2.00000    1.00000
  | Threshold for basis-dependent cutoff potential is   0.100000E-03
  | Found data for basic radial integration grid :    45 points, outermost radius =    7.000 A
  | Found multiplier for basic radial grid :   2
  | Found angular grid specification: user-specified.
  | Specified grid contains     5 separate shells.
  | Check grid settings after all constraints further below.
  | Found free-atom valence shell :  3 s   2.000
  | Found free-atom valence shell :  3 p   5.000
  | Found free-ion valence shell :  3 s   1.000
  | Found free-ion valence shell :  3 p   4.000
  | Found ionic basis function :  3 d , default cutoff radius.
  | Found hydrogenic basis function :  2 p   1.900
  | Found hydrogenic basis function :  4 f   7.400
  | Found ionic basis function :  3 s , default cutoff radius.
  | Found hydrogenic basis function :  5 g  10.400
  | Found hydrogenic basis function :  3 d   3.300
  Species Cl                  : Missing cutoff potential type.
  Defaulting to exp(1/x)/(1-x)^2 type cutoff potential.
  Species Cl: No 'logarithmic' tag. Using default grid for free atom:
  | Default logarithmic grid data [bohr] : 0.1000E-03 0.1000E+03 0.1012E+01
  | Will include ionic basis functions of  2.0-fold positive Cl                   ion.
  Species Cl: On-site basis accuracy parameter (for Gram-Schmidt orthonormalisation) not specified.
  Using default value basis_acc =  0.1000000E-03.
  Species Cl                  : Using default innermost maximum threshold i_radial=  2 for radial functions.
  Species Cl                  : Default cutoff onset for free atom density etc. : 0.40000000E+01 AA.
  Species Cl                  : Basic radial grid will be enhanced according to radial_multiplier =   2, to contain    91 grid points.
 
  Reading configuration options for species Ge                  .
  | Found nuclear charge :  32.0000
  | Found atomic mass :    72.6400000000000      amu
  | Found l_max for Hartree potential  :   6
  | Found cutoff potl. onset [A], width [A], scale factor :    4.00000    2.00000    1.00000
  | Threshold for basis-dependent cutoff potential is   0.100000E-03
  | Found data for basic radial integration grid :    54 points, outermost radius =    7.000 A
  | Found multiplier for basic radial grid :   2
  | Found angular grid specification: user-specified.
  | Specified grid contains     5 separate shells.
  | Check grid settings after all constraints further below.
  | Found free-atom valence shell :  4 s   2.000
  | Found free-atom valence shell :  4 p   2.000
  | Found free-atom valence shell :  3 d  10.000
  | Found free-ion valence shell :  4 s   1.000
  | Found free-ion valence shell :  4 p   1.000
  | Found free-ion valence shell :  3 d  10.000
  | Found hydrogenic basis function :  2 p   1.400
  | Found hydrogenic basis function :  3 d   4.300
  | Found hydrogenic basis function :  4 f   7.400
  | Found hydrogenic basis function :  3 s   3.400
  Species Ge                  : Missing cutoff potential type.
  Defaulting to exp(1/x)/(1-x)^2 type cutoff potential.
  Species Ge: No 'logarithmic' tag. Using default grid for free atom:
  | Default logarithmic grid data [bohr] : 0.1000E-03 0.1000E+03 0.1012E+01
  Species Ge: On-site basis accuracy parameter (for Gram-Schmidt orthonormalisation) not specified.
  Using default value basis_acc =  0.1000000E-03.
  Species Ge                  : Using default innermost maximum threshold i_radial=  2 for radial functions.
  Species Ge                  : Default cutoff onset for free atom density etc. : 0.40000000E+01 AA.
  Species Ge                  : Basic radial grid will be enhanced according to radial_multiplier =   2, to contain   109 grid points.
 
  Finished reading input file 'control.in'. Consistency checks are next.
 
  MPI_IN_PLACE appears to work with this MPI implementation.
  | Keeping use_mpi_in_place .true. (see manual).
  Target number of points in a grid batch is not set. Defaulting to  100
  Method for grid partitioning is not set. Defaulting to parallel hash+maxmin partitioning.
  Batch size limit is not set. Defaulting to    200
  By default, will store active basis functions for each batch.
  If in need of memory, prune_basis_once .false. can be used to disable this option.
  communication_type for Hartree potential was not specified.
  Defaulting to calc_hartree .
  Defaulting to Pulay charge density mixer.
  Pulay mixer: Number of relevant iterations not set.
  Defaulting to    8 iterations.
  Pulay mixer: Number of initial linear mixing iterations not set.
  Defaulting to    0 iterations.
  Work space size for distributed Hartree potential not set.
  Defaulting to   0.200000E+03 MB.
  Mixing parameter for charge density mixing has not been set.
  Using default: charge_mix_param =     0.0500.
  The mixing parameter will be adjusted in iteration number     2 of the first full s.c.f. cycle only.
  Algorithm-dependent basis array size parameters:
  | n_max_pulay                         :        8
  Maximum number of self-consistency iterations not provided.
  Presetting  1000 iterations.
  Presetting      1001 iterations before the initial mixing cycle
  is restarted anyway using the sc_init_iter criterion / keyword.
  Presetting a factor      1.000 between actual scf density residual
  and density convergence criterion sc_accuracy_rho below which sc_init_iter
  takes no effect.
  Geometry relaxation not requested: no relaxation will be performed.
  Handling of forces: Unphysical translation and rotation will be removed from forces.
  No accuracy limit for integral partition fn. given. Defaulting to  0.1000E-14.
  No threshold value for u(r) in integrations given. Defaulting to  0.1000E-05.
  No occupation type (smearing scheme) given. Defaulting to Gaussian broadening, width =  0.1000E-01 eV.
  The width will be adjusted in iteration number     2 of the first full s.c.f. cycle only.
  S.C.F. convergence parameters will be adjusted in iteration number     2 of the first full s.c.f. cycle only.
  No accuracy for occupation numbers given. Defaulting to  0.1000E-12.
  No threshold value for occupation numbers given. Defaulting to  0.0000E+00.
  No accuracy for fermi level given. Defaulting to  0.1000E-19.
  Maximum # of iterations to find E_F not set. Defaulting to  200.
  Preferred method for the eigenvalue solver ('KS_method') not specified in 'control.in'.
  Defaulting to serial version, 'lapack_fast', since more k-points than CPUs available.
  Will not use alltoall communication since running on < 1024 CPUs.
  Threshold for basis singularities not set.
  Default threshold for basis singularities:  0.1000E-04
  partition_type (choice of integration weights) for integrals was not specified.
  | Using a version of the partition function of Stratmann and coworkers ('stratmann_smoother').
  | At each grid point, the set of atoms used to build the partition table is smoothly restricted to
  | only those atoms whose free-atom density would be non-zero at that grid point.
  Partitioning for Hartree potential was not defined. Using partition_type for integrals.
  | Adjusted default value of keyword multip_moments_threshold to:       0.10000000E-11
  | This value may affect high angular momentum components of the Hartree potential in periodic systems.
  Spin handling was not defined in control.in. Defaulting to unpolarized case.
  Angular momentum expansion for Kerker preconditioner not set explicitly.
  | Using default value of   0
  No explicit requirement for turning off preconditioner.
  | By default, it will be turned off when the charge convergence reaches
  | sc_accuracy_rho  =   0.100000E-05
  | sc_accuracy_eev  =   0.100000E-02
  | sc_accuracy_etot =   0.100000E-05
  No special mixing parameter while Kerker preconditioner is on.
  Using default: charge_mix_param =     0.0500.
  No q(lm)/r^(l+1) cutoff set for long-range Hartree potential.
  | Using default value of  0.100000E-09 .
  | Verify using the multipole_threshold keyword.
  Defaulting to new monopole extrapolation.
  Density update method: automatic selection selected.
  Using density matrix based charge density update.
  Using density matrix based charge density update.
  Using packed matrix style: index .
  Defaulting to use time-reversal symmetry for k-point grid.
------------------------------------------------------------


------------------------------------------------------------
          Reading geometry description geometry.in.
------------------------------------------------------------
 * Warning! You did not set the 'relativistic' flag in input file 'control.in'.
 * Since you are not attempting to treat any elements beyond Ca(Z=20), FHI-aims
 * will default to 'relativistic none'.
 * You must ensure that this is really what you want!!
 * For example, DO NOT compute total-energy differences between results from
 * different settings of the 'relativistic' flag.
  Input structure read successfully.
  The structure contains       48 atoms,  and a total of        512.000 electrons.

  Input geometry:
  | Unit cell:
  |        9.99697976        0.00000000        0.00000000
  |        0.00000000        9.99697976        0.00000000
  |        0.00000000        0.00000000        9.99697976
  | Atomic structure:
  |       Atom                x [A]            y [A]            z [A]
  |    1: Species Li            3.09970673        0.28314966        6.72283159
  |    2: Species Li            3.30982016        0.02018260        2.96674832
  |    3: Species Li            6.83026689        3.16874786        0.29268027
  |    4: Species Li            7.02742300        6.79569465       -0.01471227
  |    5: Species Li            0.31962874        6.87757887        3.21396339
  |    6: Species Li            9.65413488        6.72813900        6.92129739
  |    7: Species Li           -0.10848318        3.16402683        6.82207931
  |    8: Species Li            3.59204113        5.24225810        1.67530420
  |    9: Species Li            6.77951333        8.20903709        5.19086765
  |   10: Species Li            6.49535953        1.77104112        4.71290385
  |   11: Species Li            3.14369340        7.78709738        4.81693755
  |   12: Species Li            0.02410722        2.14158589        2.04103459
  |   13: Species Li            8.05552963        0.01555658        1.75943586
  |   14: Species Li            8.18968180        9.91694589        8.24935571
  |   15: Species Li            2.24931429        3.85980927        5.09781961
  |   16: Species Li            4.73621327        3.33725295        7.89230989
  |   17: Species Li            8.03384691        4.68458086        3.53993784
  |   18: Species Li            1.70089906        8.40847713        0.17086172
  |   19: Species Li            1.78452234        1.99797848        9.60948250
  |   20: Species Li            4.91155945        6.80634183        7.97979561
  |   21: Species P             0.00824255       -0.01190900        4.96748977
  |   22: Species P             4.94191461        0.06105808       -0.13535940
  |   23: Species P             0.05151957        5.03927613        0.07865097
  |   24: Species P             5.10777721        4.92016183        4.86636738
  |   25: Species S             1.16212336        8.72881370        6.16177874
  |   26: Species S             8.68251541        1.11747192        6.11679802
  |   27: Species S             8.81429982        8.76962091        3.75897707
  |   28: Species S             1.27898023        1.24200289        3.91503063
  |   29: Species S             6.13797235        1.30575508        8.68066332
  |   30: Species S             6.07250846        8.82444710        1.07908966
  |   31: Species S             3.71304275        8.86407209        8.65672361
  |   32: Species S             3.73393127        1.30360334        0.98319611
  |   33: Species S             8.81070980        6.01778947        1.45895199
  |   34: Species S             1.07610569        6.37356108        8.89044146
  |   35: Species S             8.84126381        3.81897716        8.92691867
  |   36: Species S             1.43497352        3.91857911        1.17450359
  |   37: Species S             6.14265210        6.31316028        3.75588276
  |   38: Species S             6.38830051        3.83011096        6.07164066
  |   39: Species S             4.12667175        3.64796580        3.56206892
  |   40: Species S             3.66521490        5.81786849        6.10846823
  |   41: Species Cl            2.39048880        2.51861169        7.32661040
  |   42: Species Cl            7.38656770        7.61477764        7.55917477
  |   43: Species Cl            4.78407425       -0.23506096        4.94188237
  |   44: Species Cl            5.21313903        5.08088721       -0.26092619
  |   45: Species Cl           -0.05022592        0.26284276        0.16804374
  |   46: Species Cl            0.03034269        5.00664426        5.07353482
  |   47: Species Cl            7.67235117        2.37542704        2.49673868
  |   48: Species Cl            2.49632137        7.60013775        2.48671021

  Lattice parameters for 3D lattice (in Angstroms) :     9.996980    9.996980    9.996980
  Angle(s) between unit vectors (in degrees)      :    90.000000   90.000000   90.000000

  |

  | The smallest distance between any two atoms is         2.05785487 AA.
  |
  | The first atom of this pair is atom number                     23 .
  | The second atom of this pair is atom number                    34 .
  | Wigner-Seitz cell of the first atom image           0     0     0 .
  | (The Wigner-Seitz cell of the second atom is 0 0 0  by definition.)

  Symmetry information by spglib:
  | Precision set to  0.1E-04
  | Number of Operations  : 1
  | Space group           : 1
  | International         : P1
  | Schoenflies           : C1^1

  Quantities derived from the lattice vectors:
  | Reciprocal lattice vector 1:  0.628508  0.000000  0.000000
  | Reciprocal lattice vector 2:  0.000000  0.628508  0.000000
  | Reciprocal lattice vector 3:  0.000000  0.000000  0.628508
  | Unit cell volume                               :   0.999094E+03  A^3

  Range separation radius for Ewald summation (hartree_convergence_parameter):      3.94459200 bohr.

  Fractional coordinates:
                         L1                L2                L3
       atom_frac         0.31006432        0.02832352        0.67248627  Li
       atom_frac         0.33108201        0.00201887        0.29676446  Li
       atom_frac         0.68323304        0.31697052        0.02927687  Li
       atom_frac         0.70295461        0.67977477       -0.00147167  Li
       atom_frac         0.03197253        0.68796567        0.32149344  Li
       atom_frac         0.96570515        0.67301717        0.69233884  Li
       atom_frac        -0.01085160        0.31649827        0.68241404  Li
       atom_frac         0.35931263        0.52438419        0.16758103  Li
       atom_frac         0.67815615        0.82115172        0.51924359  Li
       atom_frac         0.64973219        0.17715762        0.47143277  Li
       atom_frac         0.31446432        0.77894500        0.48183928  Li
       atom_frac         0.00241145        0.21422329        0.20416512  Li
       atom_frac         0.80579633        0.00155613        0.17599674  Li
       atom_frac         0.81921560        0.99199420        0.82518480  Li
       atom_frac         0.22499938        0.38609754        0.50993597  Li
       atom_frac         0.47376442        0.33382612        0.78946943  Li
       atom_frac         0.80362741        0.46859961        0.35410073  Li
       atom_frac         0.17014129        0.84110175        0.01709133  Li
       atom_frac         0.17850615        0.19985821        0.96123857  Li
       atom_frac         0.49130433        0.68083981        0.79822064  Li
       atom_frac         0.00082450       -0.00119126        0.49689905  P
       atom_frac         0.49434076        0.00610765       -0.01354003  P
       atom_frac         0.00515351        0.50407986        0.00786747  P
       atom_frac         0.51093203        0.49216483        0.48678376  P
       atom_frac         0.11624745        0.87314508        0.61636403  S
       atom_frac         0.86851385        0.11178095        0.61186460  S
       atom_frac         0.88169628        0.87722703        0.37601127  S
       atom_frac         0.12793666        0.12423781        0.39162134  S
       atom_frac         0.61398267        0.13061496        0.86832859  S
       atom_frac         0.60743431        0.88271131        0.10794157  S
       atom_frac         0.37141645        0.88667501        0.86593389  S
       atom_frac         0.37350593        0.13039972        0.09834931  S
       atom_frac         0.88133717        0.60196075        0.14593928  S
       atom_frac         0.10764308        0.63754866        0.88931274  S
       atom_frac         0.88439349        0.38201309        0.89296156  S
       atom_frac         0.14354070        0.39197630        0.11748584  S
       atom_frac         0.61445079        0.63150676        0.37570175  S
       atom_frac         0.63902305        0.38312681        0.60734750  S
       atom_frac         0.41279185        0.36490679        0.35631451  S
       atom_frac         0.36663222        0.58196262        0.61103137  S
       atom_frac         0.23912110        0.25193726        0.73288239  Cl
       atom_frac         0.73887993        0.76170782        0.75614585  Cl
       atom_frac         0.47855196       -0.02351320        0.49433754  Cl
       atom_frac         0.52147140        0.50824222       -0.02610050  Cl
       atom_frac        -0.00502411        0.02629222        0.01680945  Cl
       atom_frac         0.00303519        0.50081568        0.50750676  Cl
       atom_frac         0.76746691        0.23761447        0.24974930  Cl
       atom_frac         0.24970755        0.76024339        0.24874615  Cl

  Number of empty states per atom not set in control.in - providing a guess from actual geometry.
  | Total number of empty states used during s.c.f. cycle:      114
  If you use a very high smearing, use empty_states (per atom!) in control.in to increase this value.

  Structure-dependent array size parameters: 
  | Maximum number of distinct radial functions  :       55
  | Maximum number of basis functions            :     1692
  | Number of Kohn-Sham states (occupied + empty):      370
------------------------------------------------------------

------------------------------------------------------------
          Preparing all fixed parts of the calculation.
------------------------------------------------------------
  Determining machine precision:
    2.225073858507201E-308
  Setting up grids for atomic and cluster calculations.

  Creating wave function, potential, and density for free atoms.

  Species: Li

  List of occupied orbitals and eigenvalues:
    n    l              occ      energy [Ha]    energy [eV]
    1    0           2.0000        -1.901473       -51.7417
    2    0           1.0000        -0.103132        -2.8064


  Species: P

  List of occupied orbitals and eigenvalues:
    n    l              occ      energy [Ha]    energy [eV]
    1    0           2.0000       -76.356288     -2077.7603
    2    0           2.0000        -6.358286      -173.0178
    3    0           2.0000        -0.509419       -13.8620
    2    1           6.0000        -4.573976      -124.4642
    3    1           3.0000        -0.201560        -5.4847


  Species: S

  List of occupied orbitals and eigenvalues:
    n    l              occ      energy [Ha]    energy [eV]
    1    0           2.0000       -88.108280     -2397.5483
    2    0           2.0000        -7.732485      -210.4116
    3    0           2.0000        -0.629532       -17.1304
    2    1           6.0000        -5.750324      -156.4743
    3    1           4.0000        -0.257562        -7.0086


  Species: Cl

  List of occupied orbitals and eigenvalues:
    n    l              occ      energy [Ha]    energy [eV]
    1    0           2.0000      -100.710795     -2740.4802
    2    0           2.0000        -9.222997      -250.9705
    3    0           2.0000        -0.754245       -20.5241
    2    1           6.0000        -7.039872      -191.5647
    3    1           5.0000        -0.316221        -8.6048


  Species: Ge

  List of occupied orbitals and eigenvalues:
    n    l              occ      energy [Ha]    energy [eV]
    1    0           2.0000      -397.001973    -10802.9733
    2    0           2.0000       -49.131904     -1336.9471
    3    0           2.0000        -5.983904      -162.8303
    4    0           2.0000        -0.415506       -11.3065
    2    1           6.0000       -43.739541     -1190.2135
    3    1           6.0000        -4.198710      -114.2527
    4    1           2.0000        -0.141032        -3.8377
    3    2          10.0000        -1.103726       -30.0339

  Creating fixed part of basis set: Ionic, confined, hydrogenic.
 
  Li                   hydrogenic:
 
  List of hydrogenic basis orbitals: 
    n    l      effective z      eigenvalue [eV]  inner max. [A]     outer max. [A]     outer radius [A]   
    2    1         1.600000        -8.7048           1.319365           1.319365           6.386418
    2    0         2.000000       -13.6052           0.203259           1.385485           6.232164
    3    2         2.600000       -10.2084           1.835332           1.835332           6.386418
    3    1         4.600000       -31.9883           0.343834           1.385485           5.381805
    2    1         1.800000       -11.0199           1.181903           1.181903           6.386418
    3    0         6.200000       -58.1113           0.062858           1.111823           4.371906
    4    2         4.700000       -18.7772           0.761113           2.401695           6.386418
    4    3         4.100000       -14.2833           2.073992           2.073992           6.386418
 
 
  P                    ion:

  List of free ionic orbitals and eigenvalues:
    n    l      energy [Ha]    energy [eV]
    1    0       -77.297133     -2103.3620
    2    0        -7.273914      -197.9333
    3    0        -1.267536       -34.4914
    2    1        -5.491316      -149.4263
    3    1        -0.913470       -24.8568


  List of ionic basis orbitals and eigenvalues:
    n    l      energy [Ha]    energy [eV]    outer radius [A]
    3    2        -0.458060       -12.4644       5.404780
    3    1        -0.913461       -24.8565       4.724723
    3    0        -1.267529       -34.4912       4.232463

 
  P                    hydrogenic:
 
  List of hydrogenic basis orbitals: 
    n    l      effective z      eigenvalue [eV]  inner max. [A]     outer max. [A]     outer radius [A]   
    4    3         6.200000       -32.6870           1.357793           1.357793           5.339109
    5    4         8.600000       -40.2502           1.534356           1.534356           5.404780
    4    2         6.200000       -32.6848           0.577014           1.820771           5.404780
 
 
  S                    ion:

  List of free ionic orbitals and eigenvalues:
    n    l      energy [Ha]    energy [eV]
    1    0       -89.127201     -2425.2745
    2    0        -8.724378      -237.4024
    3    0        -1.464668       -39.8556
    2    1        -6.744348      -183.5230
    3    1        -1.048520       -28.5317


  List of ionic basis orbitals and eigenvalues:
    n    l      energy [Ha]    energy [eV]    outer radius [A]
    3    2        -0.496514       -13.5108       5.386362
    3    0        -1.464662       -39.8555       3.967934

 
  S                    hydrogenic:
 
  List of hydrogenic basis orbitals: 
    n    l      effective z      eigenvalue [eV]  inner max. [A]     outer max. [A]     outer radius [A]   
    2    1         1.800000       -11.0118           1.168531           1.168531           5.452614
    4    3         7.000000       -41.6672           1.212182           1.212182           5.066981
    4    2         6.200000       -32.6848           0.582121           1.814567           5.386362
    5    4        10.800000       -63.4785           1.227092           1.227092           4.766538
 
 
  Cl                   ion:

  List of free ionic orbitals and eigenvalues:
    n    l      energy [Ha]    energy [eV]
    1    0      -101.807232     -2770.3157
    2    0       -10.290876      -280.0290
    3    0        -1.664625       -45.2967
    2    1        -8.110237      -220.6908
    3    1        -1.183915       -32.2160


  List of ionic basis orbitals and eigenvalues:
    n    l      energy [Ha]    energy [eV]    outer radius [A]
    3    2        -0.529392       -14.4055       5.389057
    3    0        -1.664620       -45.2966       3.780461

 
  Cl                   hydrogenic:
 
  List of hydrogenic basis orbitals: 
    n    l      effective z      eigenvalue [eV]  inner max. [A]     outer max. [A]     outer radius [A]   
    2    1         1.900000       -12.2741           1.113321           1.113321           5.389057
    4    3         7.400000       -46.5653           1.140877           1.140877           4.886961
    5    4        10.400000       -58.8635           1.273568           1.273568           4.886961
    3    2         3.300000       -16.4532           1.439178           1.439178           5.455343
 
 
  Ge                   hydrogenic:
 
  List of hydrogenic basis orbitals: 
    n    l      effective z      eigenvalue [eV]  inner max. [A]     outer max. [A]     outer radius [A]   
    2    1         1.400000        -6.6027           1.497690           1.497690           5.472700
    3    2         4.300000       -27.9518           1.103293           1.103293           5.275625
    4    3         7.400000       -46.5653           1.144507           1.144507           4.902509
    3    0         3.400000       -17.4423           0.114943           2.033073           5.472700
 

  Adding cutoff potential to free-atom effective potential.
  Creating atomic-like basis functions for current effective potential.

  Species Li                  :

  List of atomic basis orbitals and eigenvalues:
    n    l      energy [Ha]    energy [eV]    outer radius [A]
    1    0        -1.901473       -51.7417       4.318785
    2    0        -0.103132        -2.8064       6.464971


  Species P                   :

  List of atomic basis orbitals and eigenvalues:
    n    l      energy [Ha]    energy [eV]    outer radius [A]
    1    0       -76.356288     -2077.7603       0.736837
    2    0        -6.358286      -173.0178       2.532824
    3    0        -0.509419       -13.8620       5.274236
    2    1        -4.573976      -124.4642       2.862183
    3    1        -0.201560        -5.4847       5.404780


  Species S                   :

  List of atomic basis orbitals and eigenvalues:
    n    l      energy [Ha]    energy [eV]    outer radius [A]
    1    0       -88.108280     -2397.5483       0.682391
    2    0        -7.732485      -210.4116       2.317169
    3    0        -0.629532       -17.1304       5.256262
    2    1        -5.750324      -156.4743       2.555240
    3    1        -0.257562        -7.0086       5.386362


  Species Cl                  :

  List of atomic basis orbitals and eigenvalues:
    n    l      energy [Ha]    energy [eV]    outer radius [A]
    1    0      -100.710795     -2740.4802       0.642251
    2    0        -9.222997      -250.9705       2.128190
    3    0        -0.754245       -20.5241       5.194994
    2    1        -7.039872      -191.5647       2.346844
    3    1        -0.316221        -8.6048       5.323577


  Species Ge                  :

  List of atomic basis orbitals and eigenvalues:
    n    l      energy [Ha]    energy [eV]    outer radius [A]
    1    0      -397.001973    -10802.9733       0.332955
    2    0       -49.131904     -1336.9471       0.964471
    3    0        -5.983904      -162.8303       2.660457
    4    0        -0.415506       -11.3065       5.340515
    2    1       -43.739541     -1190.2135       0.988343
    3    1        -4.198710      -114.2527       3.043392
    4    1        -0.141032        -3.8377       5.406203
    3    2        -1.103726       -30.0339       4.842941

  Assembling full basis from fixed parts.
  | Species Li :   atomic orbital   1 s accepted.
  | Species Li :    hydro orbital   3 s accepted.
  | Species Li :    hydro orbital   2 s accepted.
  | Species Li :   atomic orbital   2 s accepted.
  | Species Li :    hydro orbital   3 p accepted.
  | Species Li :    hydro orbital   2 p accepted.
  | Species Li :    hydro orbital   2 p accepted.
  | Species Li :    hydro orbital   3 d accepted.
  | Species Li :    hydro orbital   4 d accepted.
  | Species Li :    hydro orbital   4 f accepted.
  | Species P :   atomic orbital   1 s accepted.
  | Species P :   atomic orbital   2 s accepted.
  | Species P :    ionic orbital   3 s accepted.
  | Species P :   atomic orbital   3 s accepted.
  | Species P :   atomic orbital   2 p accepted.
  | Species P :    ionic orbital   3 p accepted.
  | Species P :   atomic orbital   3 p accepted.
  | Species P :    ionic orbital   3 d accepted.
  | Species P :    hydro orbital   4 d accepted.
  | Species P :    hydro orbital   4 f accepted.
  | Species P :    hydro orbital   5 g accepted.
  | Species S :   atomic orbital   1 s accepted.
  | Species S :   atomic orbital   2 s accepted.
  | Species S :    ionic orbital   3 s accepted.
  | Species S :   atomic orbital   3 s accepted.
  | Species S :   atomic orbital   2 p accepted.
  | Species S :   atomic orbital   3 p accepted.
  | Species S :    hydro orbital   2 p accepted.
  | Species S :    ionic orbital   3 d accepted.
  | Species S :    hydro orbital   4 d accepted.
  | Species S :    hydro orbital   4 f accepted.
  | Species S :    hydro orbital   5 g accepted.
  | Species Cl :   atomic orbital   1 s accepted.
  | Species Cl :   atomic orbital   2 s accepted.
  | Species Cl :    ionic orbital   3 s accepted.
  | Species Cl :   atomic orbital   3 s accepted.
  | Species Cl :   atomic orbital   2 p accepted.
  | Species Cl :   atomic orbital   3 p accepted.
  | Species Cl :    hydro orbital   2 p accepted.
  | Species Cl :    ionic orbital   3 d accepted.
  | Species Cl :    hydro orbital   3 d accepted.
  | Species Cl :    hydro orbital   4 f accepted.
  | Species Cl :    hydro orbital   5 g accepted.
  | Species Ge :   atomic orbital   1 s accepted.
  | Species Ge :   atomic orbital   2 s accepted.
  | Species Ge :   atomic orbital   3 s accepted.
  | Species Ge :   atomic orbital   4 s accepted.
  | Species Ge :    hydro orbital   3 s accepted.
  | Species Ge :   atomic orbital   2 p accepted.
  | Species Ge :   atomic orbital   3 p accepted.
  | Species Ge :   atomic orbital   4 p accepted.
  | Species Ge :    hydro orbital   2 p accepted.
  | Species Ge :   atomic orbital   3 d accepted.
  | Species Ge :    hydro orbital   3 d accepted.
  | Species Ge :    hydro orbital   4 f accepted.
 
  Basis size parameters after reduction:
  | Total number of radial functions:       55
  | Total number of basis functions :     1692
 
  Per-task memory consumption for arrays in subroutine allocate_ext:
  |          14.980084MB.
  Testing on-site integration grid accuracy.
  |  Species  Function  <phi|h_atom|phi> (log., in eV)  <phi|h_atom|phi> (rad., in eV)
           1        1                -51.7417001117                -51.7417000312
           1        2                 33.5927188637                 33.5926505054
           1        3                 69.1469416012                 69.1473382425
           1        4                 48.8336153902                 48.8810182289 ***
           1        5                 17.1749490570                 17.1749098864
           1        6                 32.1201183828                 32.1217831653
           1        7                  6.0166019876                  6.0249480535
           1        8                  4.9175332206                  4.9194842525
           1        9                 28.8010599263                 28.8011051086
           1       10                  9.9331480983                  9.9353515081
           2       11              -2077.7602992527              -2077.7602630746
           2       12               -173.0177635265               -173.0177629291
           2       13                -13.5620523038                -13.5620521963
           2       14                  6.3015351439                  6.3015396353
           2       15               -124.4642131574               -124.4642129967
           2       16                 -4.8468074573                 -4.8468065719
           2       17                  5.8113348591                  5.8108493787
           2       18                  5.1218113540                  5.1217878152
           2       19                 22.1386653152                 22.1386624883
           2       20                 19.3047268689                 19.3047231214
           2       21                 30.3235883931                 30.3235836780
           3       22              -2397.5482725833              -2397.5482291499
           3       23               -210.4116306505               -210.4116300246
           3       24                -16.8591546483                -16.8591544436
           3       25                  7.5848976656                  7.5849001027
           3       26               -156.4742745766               -156.4742744285
           3       27                 -7.0089268331                 -7.0089287934
           3       28                  6.8790437028                  6.8789536772
           3       29                  6.0023049431                  6.0023019693
           3       30                 19.5634804122                 19.5634829634
           3       31                 24.6809503130                 24.6809503093
           3       32                 47.5107032033                 47.5107040524
           4       33              -2740.4801671239              -2740.4801157382
           4       34               -250.9705040601               -250.9705032686
           4       35                -20.2716828479                -20.2716826054
           4       36                  9.0161300765                  9.0161279813
           4       37               -191.5646602865               -191.5646600866
           4       38                 -8.6049187754                 -8.6049181478
           4       39                  7.6458046208                  7.6458222053
           4       40                  6.9765726558                  6.9765744583
           4       41                 16.6546700656                 16.6546956458
           4       42                 28.0343243807                 28.0343233726
           4       43                 45.0370063060                 45.0370052039
           5       44             -10802.9733414751             -10802.9729425948
           5       45              -1336.9471188055              -1336.9471110723
           5       46               -162.8303199730               -162.8303191139
           5       47                -11.3065970458                -11.3065974621
           5       48                  3.9107640727                  3.9106883215
           5       49              -1190.2134555916              -1190.2134541175
           5       50               -114.2527084804               -114.2527080190
           5       51                 -3.8416627318                 -3.8416744430
           5       52                  4.9939274213                  4.9938228637
           5       53                -30.0339196701                -30.0339195807
           5       54                  9.6865334021                  9.6865320095
           5       55                 25.2138836360                 25.2138837585
 * Note: Onsite integrals marked "***" above are less accurate than
 * onsite_accuracy_threshold =    0.03000 eV. Usually, this is harmless.
 * When in doubt, tighten the "radial" and/or "radial_multiplier" flags to check.

  Preparing densities etc. for the partition functions (integrals / Hartree potential).

  Preparations completed.
  max(cpu_time)          :      0.558 s.
  Wall clock time (cpu1) :      0.566 s.
------------------------------------------------------------

------------------------------------------------------------
          Begin self-consistency loop: Initialization.

          Date     :  20220324, Time     :  033145.127
------------------------------------------------------------

  Initializing index lists of integration centers etc. from given atomic structure:
  Mapping all atomic coordinates to central unit cell.

  Initializing the k-points
          Using symmetry for reducing the k-points
  | k-points reduced from:      125 to       63
  | Number of k-points                             :        63
  The eigenvectors in the calculations are COMPLEX.
  | K-points in task   0:         3
  | K-points in task   1:         4
  | K-points in task   2:         4
  | K-points in task   3:         4
  | K-points in task   4:         3
  | K-points in task   5:         3
  | K-points in task   6:         3
  | K-points in task   7:         3
  | K-points in task   8:         3
  | K-points in task   9:         3
  | K-points in task  10:         3
  | K-points in task  11:         3
  | K-points in task  12:         3
  | K-points in task  13:         3
  | K-points in task  14:         3
  | K-points in task  15:         3
  | K-points in task  16:         3
  | K-points in task  17:         3
  | K-points in task  18:         3
  | K-points in task  19:         3
  | Number of basis functions in the Hamiltonian integrals :     13880
  | Number of basis functions in a single unit cell        :      1692
  | Number of centers in hartree potential         :      2162
  | Number of centers in hartree multipole         :      1486
  | Number of centers in electron density summation:      1190
  | Number of centers in basis integrals           :      1251
  | Number of centers in integrals                 :       478
  | Number of centers in hamiltonian               :      1452
  | Consuming         80 KiB for k_phase.
  | Number of super-cells (origin) [n_cells]                     :         343
  | Number of super-cells (after PM_index) [n_cells]             :          82
  | Number of super-cells in hamiltonian [n_cells_in_hamiltonian]:          82
  | Size of matrix packed + index [n_hamiltonian_matrix_size] :     8246275
  Partitioning the integration grid into batches with parallel hashing+maxmin method.
  | Number of batches:    10485
  | Maximal batch size:     120
  | Minimal batch size:      49
  | Average batch size:      96.867
  | Standard deviation of batch sizes:      12.031

  Integration load balanced across    20 MPI tasks.
  Work distribution over tasks is as follows:
  Task     0 has      50805 integration points.
  Task     1 has      50772 integration points.
  Task     2 has      50833 integration points.
  Task     3 has      50737 integration points.
  Task     4 has      50752 integration points.
  Task     5 has      50761 integration points.
  Task     6 has      50763 integration points.
  Task     7 has      50804 integration points.
  Task     8 has      50741 integration points.
  Task     9 has      50761 integration points.
  Task    10 has      50754 integration points.
  Task    11 has      50848 integration points.
  Task    12 has      50757 integration points.
  Task    13 has      50769 integration points.
  Task    14 has      50827 integration points.
  Task    15 has      50813 integration points.
  Task    16 has      50788 integration points.
  Task    17 has      50763 integration points.
  Task    18 has      50788 integration points.
  Task    19 has      50812 integration points.
  Initializing partition tables, free-atom densities, potentials, etc. across the integration grid (initialize_grid_storage).
  | initialize_grid_storage: Actual outermost partition radius vs. multipole_radius_free
  | (-- VB: in principle, multipole_radius_free should be larger, hence this output)
  | Species        1: Confinement radius =              7.000000000000000 AA, multipole_radius_free =              7.042572113910259 AA.
  | Species        1: outer_partition_radius set to              7.042572113910259 AA .
  | Species        2: Confinement radius =              6.000000000000000 AA, multipole_radius_free =              6.033387558927091 AA.
  | Species        2: outer_partition_radius set to              6.033387558927091 AA .
  | Species        3: Confinement radius =              6.000000000000000 AA, multipole_radius_free =              6.012827091137924 AA.
  | Species        3: outer_partition_radius set to              6.012827091137924 AA .
  | Species        4: Confinement radius =              6.000000000000000 AA, multipole_radius_free =              6.015836048499353 AA.
  | Species        4: outer_partition_radius set to              6.015836048499353 AA .
  | Species        5: Confinement radius =              6.000000000000000 AA, multipole_radius_free =              6.034976375468270 AA.
  | Species        5: outer_partition_radius set to              6.034976375468270 AA .
  | Original list of interatomic distances with        1251 x       1251 entries is created.
  | Net number of integration points:  1015648
  | of which are non-zero points    :   818080
  | Numerical average free-atom electrostatic potential    :     -9.94112413 eV
  Renormalizing the initial density to the exact electron count on the 3D integration grid.
  | Initial density: Formal number of electrons (from input files) :     512.0000000000
  | Integrated number of electrons on 3D grid     :     511.9997701902
  | Charge integration error                      :      -0.0002298098
  | Normalization factor for density and gradient :       1.0000004488
  Obtaining max. number of non-zero basis functions in each batch (get_n_compute_maxes).
  | Maximal number of non-zero basis functions:     1700 in task     0
  | Maximal number of non-zero basis functions:     1767 in task     1
  | Maximal number of non-zero basis functions:     1710 in task     2
  | Maximal number of non-zero basis functions:     1733 in task     3
  | Maximal number of non-zero basis functions:     1742 in task     4
  | Maximal number of non-zero basis functions:     1727 in task     5
  | Maximal number of non-zero basis functions:     1714 in task     6
  | Maximal number of non-zero basis functions:     1736 in task     7
  | Maximal number of non-zero basis functions:     1681 in task     8
  | Maximal number of non-zero basis functions:     1709 in task     9
  | Maximal number of non-zero basis functions:     1719 in task    10
  | Maximal number of non-zero basis functions:     1744 in task    11
  | Maximal number of non-zero basis functions:     1726 in task    12
  | Maximal number of non-zero basis functions:     1751 in task    13
  | Maximal number of non-zero basis functions:     1770 in task    14
  | Maximal number of non-zero basis functions:     1718 in task    15
  | Maximal number of non-zero basis functions:     1718 in task    16
  | Maximal number of non-zero basis functions:     1722 in task    17
  | Maximal number of non-zero basis functions:     1718 in task    18
  | Maximal number of non-zero basis functions:     1708 in task    19
  Allocating       30.050 MB for KS_eigenvector_complex
  Integrating Hamiltonian matrix: batch-based integration.
  Time summed over all CPUs for integration: real work      319.503 s, elapsed      324.482 s
  Integrating overlap matrix.
  Time summed over all CPUs for integration: real work      235.637 s, elapsed      238.344 s
  Decreasing sparse matrix size:
   Tolerance:  9.999999824516700E-014
   Hamiltonian matrix
  | Array has  7366563 nonzero elements out of  8246275 elements
  | Sparsity factor is 0.107
   Overlap matrix
  | Array has  6959425 nonzero elements out of  8246275 elements
  | Sparsity factor is 0.156
  New size of hamiltonian matrix:     7366699

  Updating Kohn-Sham eigenvalues and eigenvectors using ELSI and the ELPA eigensolver.
  Overlap matrix is nonsingular
  | Lowest eigenvalue of overlap  :  0.59E-04
  | Highest eigenvalue of overlap :  0.12E+02
  Finished singularity check of overlap matrix
  | Time :     3.402 s
  Finished Cholesky decomposition
  | Time :     0.449 s
  Finished transformation to standard eigenproblem
  | Time :     0.762 s
  Starting LAPACK eigensolver
  Finished solving standard eigenproblem
  | Time :     3.554 s
  Finished back-transformation of eigenvectors
  | Time :     0.131 s

  Obtaining occupation numbers and chemical potential using ELSI.
  | Chemical potential (Fermi level):    -5.46204619eV
  Writing Kohn-Sham eigenvalues.
  K-point:       1 at    0.000000    0.000000    0.000000 (in units of recip. lattice)

  State    Occupation    Eigenvalue [Ha]    Eigenvalue [eV]
      1       2.00000        -100.760092        -2741.82161
      2       2.00000        -100.758691        -2741.78349
      3       2.00000        -100.757129        -2741.74099
      4       2.00000        -100.757117        -2741.74066
      5       2.00000        -100.755995        -2741.71012
      6       2.00000        -100.755223        -2741.68913
      7       2.00000        -100.754792        -2741.67738
      8       2.00000        -100.753265        -2741.63583
      9       2.00000         -88.151112        -2398.71381
     10       2.00000         -88.149905        -2398.68097
     11       2.00000         -88.149871        -2398.68004
     12       2.00000         -88.149471        -2398.66916
     13       2.00000         -88.149227        -2398.66250
     14       2.00000         -88.147052        -2398.60333
     15       2.00000         -88.146421        -2398.58616
     16       2.00000         -88.145847        -2398.57055
     17       2.00000         -88.144831        -2398.54288
     18       2.00000         -88.144683        -2398.53887
     19       2.00000         -88.143645        -2398.51063
     20       2.00000         -88.143634        -2398.51032
     21       2.00000         -88.143567        -2398.50849
     22       2.00000         -88.143077        -2398.49516
     23       2.00000         -88.142993        -2398.49289
     24       2.00000         -88.142261        -2398.47295
     25       2.00000         -76.392803        -2078.75393
     26       2.00000         -76.388852        -2078.64643
     27       2.00000         -76.388433        -2078.63503
     28       2.00000         -76.388114        -2078.62635
     29       2.00000          -9.274163         -252.36282
[...]
    304       0.00000           0.002515            0.06844
    305       0.00000           0.005087            0.13842
    306       0.00000           0.006994            0.19033
    307       0.00000           0.008196            0.22302
    308       0.00000           0.010818            0.29436
    309       0.00000           0.013768            0.37466
    310       0.00000           0.015067            0.41001
    311       0.00000           0.017439            0.47453
    312       0.00000           0.018794            0.51142
    313       0.00000           0.020004            0.54434
    314       0.00000           0.022881            0.62264
    315       0.00000           0.023762            0.64660
    316       0.00000           0.026544            0.72230
    317       0.00000           0.027769            0.75563
    318       0.00000           0.029979            0.81578
    319       0.00000           0.032864            0.89429
    320       0.00000           0.034223            0.93124
    321       0.00000           0.037653            1.02459
    322       0.00000           0.038901            1.05856
    323       0.00000           0.040551            1.10345
    324       0.00000           0.041337            1.12484
    325       0.00000           0.042323            1.15168
    326       0.00000           0.044457            1.20973
    327       0.00000           0.046345            1.26113
    328       0.00000           0.048727            1.32592
    329       0.00000           0.049172            1.33804
    330       0.00000           0.052080            1.41718
    331       0.00000           0.054236            1.47583
    332       0.00000           0.057450            1.56330
    333       0.00000           0.057763            1.57181
    334       0.00000           0.062142            1.69097
    335       0.00000           0.064726            1.76128
    336       0.00000           0.065825            1.79119
    337       0.00000           0.067464            1.83580
    338       0.00000           0.068868            1.87399
    339       0.00000           0.069987            1.90444
    340       0.00000           0.071286            1.93978
    341       0.00000           0.072408            1.97032
    342       0.00000           0.075598            2.05713
    343       0.00000           0.076918            2.09303
    344       0.00000           0.077819            2.11757
    345       0.00000           0.082200            2.23679
    346       0.00000           0.084183            2.29075
    347       0.00000           0.087119            2.37062
    348       0.00000           0.088993            2.42163
    349       0.00000           0.091154            2.48043
    350       0.00000           0.096425            2.62385
    351       0.00000           0.097125            2.64290
    352       0.00000           0.100285            2.72890
    353       0.00000           0.104651            2.84770
    354       0.00000           0.107500            2.92522
    355       0.00000           0.111746            3.04076
    356       0.00000           0.115447            3.14148
    357       0.00000           0.119327            3.24706
    358       0.00000           0.122231            3.32608
    359       0.00000           0.124836            3.39697
    360       0.00000           0.126945            3.45435
    361       0.00000           0.129322            3.51902
    362       0.00000           0.132634            3.60915
    363       0.00000           0.137560            3.74320
    364       0.00000           0.138072            3.75714
    365       0.00000           0.138545            3.76999
    366       0.00000           0.141903            3.86139
    367       0.00000           0.145187            3.95074
    368       0.00000           0.149275            4.06198
    369       0.00000           0.151838            4.13173
    370       0.00000           0.155915            4.24267

  What follows are estimated values for band gap, HOMO, LUMO, etc.
  | They are estimated on a discrete k-point grid and not necessarily exact.
  | For converged numbers, create a DOS and/or band structure plot on a denser k-grid.

  Highest occupied state (VBM) at     -7.22171691 eV (relative to internal zero)
  | Occupation number:      2.00000000
  | K-point:      47 at    0.400000    0.600000    0.600000 (in units of recip. lattice)

  Lowest unoccupied state (CBM) at    -5.15807762 eV (relative to internal zero)
  | Occupation number:      0.00000001
  | K-point:       1 at    0.000000    0.000000    0.000000 (in units of recip. lattice)

  ESTIMATED overall HOMO-LUMO gap:      2.06363929 eV between HOMO at k-point 47 and LUMO at k-point 1
  | This appears to be an indirect band gap.
  | Smallest direct gap :      2.10052441 eV for k_point 1 at    0.000000    0.000000    0.000000 (in units of recip. lattice)
  The gap value is above 0.2 eV. Unless you are using a very sparse k-point grid,
  this system is most likely an insulator or a semiconductor.

  Self-consistency cycle converged.

  End self-consistency iteration #    20       :  max(cpu_time)    wall_clock(cpu1)
  | Time for this iteration                    :      383.284 s         383.260 s
  | Charge density & force component update    :      327.747 s         327.724 s
  | Density mixing                             :        0.021 s           0.021 s
  | Hartree multipole update                   :        0.014 s           0.015 s
  | Hartree multipole summation                :       20.879 s          20.878 s
  | Integration                                :       16.217 s          16.216 s
  | Solution of K.-S. eqns.                    :       18.400 s          18.399 s
  | Total energy evaluation                    :        0.002 s           0.003 s

  Partial memory accounting:
  | Current value for overall tracked memory usage on task 0  :         177.386 MB
  | Peak value for overall tracked memory usage on task 0     :         360.650 MB after allocating eigenvalue_tmp
  | Largest tracked array allocation on task 0 so far         :          65.970 MB  when allocating overlap_matrix
  Note:  These values currently only include a subset of arrays which are explicitly tracked.
  The "true" memory usage will be greater.
------------------------------------------------------------
  |------------------------------------------
  | Final ELSI Output
  |------------------------------------------
  | Number of basis functions :         1692
  | Number of electrons       :        512.0
  | Number of states          :          370
  | Solver                    :         ELPA
  | Parallel mode             :  SINGLE_PROC
  | Matrix format             :  BLACS_DENSE
  |------------------------------------------
  | ELSI Project (c)  elsi-interchange.org
  |------------------------------------------
  Removing unitary transformations (pure translations, rotations) from forces on atoms.
  Atomic forces before filtering:
  | Net force on center of mass :   0.101954E-02  0.363577E-02 -0.320593E-03 eV/A
  Atomic forces after filtering:
  | Net force on center of mass :  -0.557519E-17  0.355418E-16 -0.557519E-17 eV/A

  Energy and forces in a compact form:
  | Total energy uncorrected      :         -0.314749467775256E+06 eV
  | Total energy corrected        :         -0.314749467775256E+06 eV  <-- do not rely on this value for anything but (periodic) metals
  | Electronic free energy        :         -0.314749467775256E+06 eV
  Total atomic forces (unitary forces cleaned) [eV/Ang]:
  |   1         -0.220863793102630E-01         -0.940110928218784E-02          0.107060658189372E-02
  |   2          0.848774589509395E-03          0.631808035757321E-02         -0.245927296197079E-01
  |   3          0.274108925119817E-01         -0.713375689481805E-02         -0.192563287778756E-01
  |   4          0.952444726068001E-02         -0.304882666627562E-02          0.937522681807390E-02
  |   5         -0.135606212586677E-01          0.223681309236858E-01         -0.122331062662525E-01
  |   6          0.124440087423397E-01          0.288974818154497E-02          0.241968942021403E-01
  |   7         -0.162611081795575E-01         -0.972838536390560E-02          0.171615243027789E-01
  |   8         -0.821761285721259E-03         -0.216761755481081E-01          0.368708580973736E-01
  |   9          0.573146053623417E-02         -0.102457925166786E-01         -0.686743507419755E-02
  |  10          0.279806371186220E-03          0.504386088411637E-01          0.427827250292728E-02
  |  11          0.207567757792476E-01         -0.273568316092519E-01          0.766731390306952E-02
  |  12         -0.176713504385272E-02          0.114447582774308E-01         -0.365276220540480E-03
  |  13         -0.229330074692719E-01         -0.325884528299546E-02         -0.107716000854934E-02
  |  14         -0.350292093241917E-01          0.382294388271335E-02         -0.153747733289284E-01
  |  15          0.419829218724216E-01          0.731013840498613E-02          0.907652525518019E-02
  |  16          0.827519830389259E-02          0.197658167562948E-01         -0.370494870239956E-01
  |  17         -0.292960195070875E-01          0.451109249900176E-02          0.306205543792907E-02
  |  18          0.214807557060974E-01         -0.971931960017785E-02         -0.750932118776987E-02
  |  19          0.153825280050164E-01          0.152328627420319E-01          0.542599037057725E-02
  |  20         -0.107013402011064E-01         -0.153348719637727E-02         -0.189407936494936E-01
  |  21         -0.513274438693489E-03         -0.143182587459777E-01          0.718654677832912E-02
  |  22         -0.882802820125454E-02          0.178527407226623E-01          0.144325662807583E-01
  |  23         -0.793677485710290E-02          0.378160136670699E-03         -0.190285308437682E-01
  |  24          0.101226819921741E-02         -0.114029814436448E-01         -0.123835983199571E-01
  |  25         -0.106865135605526E+00          0.139388577069138E+00         -0.168614592187090E+00
  |  26          0.145097125954136E+00         -0.125277398270385E+00         -0.110612559845996E+00
  |  27          0.124114517900373E+00          0.120671772965707E+00          0.137908384315595E+00
  |  28         -0.147388937511289E+00         -0.152947144054969E+00          0.121744451524763E+00
  |  29         -0.118961191164835E+00         -0.110770927381187E+00          0.168590951734862E+00
  |  30         -0.104467285358739E+00          0.173419651628171E+00         -0.186016184068999E+00
  |  31          0.116583093368329E+00          0.129408984918601E+00          0.138723096859380E+00
  |  32          0.118701343400021E+00         -0.194082623644381E+00         -0.127851558185188E+00
  |  33          0.135051056671222E+00         -0.109340394012015E+00         -0.130608053789953E+00
  |  34         -0.170542318773198E+00         -0.131564999108088E+00          0.155938755681692E+00
  |  35          0.166045189099336E+00          0.154094024638632E+00          0.149090872312960E+00
  |  36         -0.155889830060565E+00          0.815645861485207E-01         -0.151988449829428E+00
  |  37         -0.100131880405870E+00         -0.195451277100384E+00          0.174778014327227E+00
  |  38         -0.194794731269075E+00          0.776305481286871E-01         -0.192577198849404E+00
  |  39          0.844738468230968E-01          0.208215523779877E+00          0.185995935347110E+00
  |  40          0.206570069896622E+00         -0.102823912071412E+00         -0.153370253918925E+00
  |  41          0.335741861185567E-02         -0.115964307628014E-01         -0.375871745787888E-02
  |  42          0.505510123369065E-02          0.159971958038157E-01          0.833936604308594E-02
  |  43         -0.368530033893322E-01         -0.219424935857879E-01         -0.172433223705521E-01
  |  44          0.243594723003809E-01          0.102940268888174E-01         -0.190155125527024E-01
  |  45         -0.699824417261211E-02          0.182227943938574E-01          0.227032775207143E-01
  |  46          0.624354495320500E-02         -0.413558400180588E-02          0.185918832559329E-01
  |  47          0.356426382130105E-01         -0.812609155356742E-02         -0.139030190625912E-01
  |  48         -0.237970395152904E-01          0.564227760759997E-02          0.280285929853931E-01

  ------------------------------------ 
  Start decomposition of the XC Energy 
  ------------------------------------ 
  X and C from original XC functional choice 
  Hartree-Fock Energy :          0.000000000 Ha              0.000000000 eV
  X Energy            :       -744.928563382 Ha         -20270.537563226 eV
  C Energy            :        -19.259441219 Ha           -524.076060271 eV
  Total XC Energy     :       -764.188004601 Ha         -20794.613623497 eV
  ------------------------------------ 
  LDA X and C from self-consistent density 
  X Energy LDA        :       -689.466304567 Ha         -18761.332713359 eV
  C Energy LDA        :        -38.786157115 Ha          -1055.425034526 eV
  ------------------------------------ 
  End decomposition of the XC Energy 
  ------------------------------------ 

------------------------------------------------------------

------------------------------------------------------------------------------
  Final output of selected total energy values:

  The following output summarizes some interesting total energy values
  at the end of a run (AFTER all relaxation, molecular dynamics, etc.).

  | Total energy of the DFT / Hartree-Fock s.c.f. calculation      :        -314749.467775256 eV
  | Final zero-broadening corrected energy (caution - metals only) :        -314749.467775256 eV
  | For reference only, the value of 1 Hartree used in FHI-aims is :             27.211384500 eV

  Before relying on these values, please be sure to understand exactly which
  total energy value is referred to by a given number. Different objects may
  all carry the same name 'total energy'. Definitions:

  Total energy of the DFT / Hartree-Fock s.c.f. calculation:
  | Note that this energy does not include ANY quantities calculated after the
  | s.c.f. cycle, in particular not ANY RPA, MP2, etc. many-body perturbation terms.

  Final zero-broadening corrected energy:
  | For metallic systems only, a broadening of the occupation numbers at the Fermi
  | level can be extrapolated back to zero broadening by an electron-gas inspired
  | formula. For all systems that are not real metals, this value can be
  | meaningless and should be avoided.

------------------------------------------------------------------------------
  Methods described in the following list of references were used in this FHI-aims run.
  If you publish the results, please make sure to cite these reference if they apply.
  FHI-aims is an academic code, and for our developers (often, Ph.D. students
  and postdocs), scientific credit in the community is essential.
  Thank you for helping us!

  For any use of FHI-aims, please cite:

    Volker Blum, Ralf Gehrke, Felix Hanke, Paula Havu, Ville Havu,
    Xinguo Ren, Karsten Reuter, and Matthias Scheffler
    'Ab initio molecular simulations with numeric atom-centered orbitals'
    Computer Physics Communications 180, 2175-2196 (2009)
    http://dx.doi.org/10.1016/j.cpc.2009.06.022


  The provided symmetry information was generated with SPGlib:

    Atsushi Togo, Yusuke Seto, Dimitar Pashov
    SPGlib 1.7.3 obtained from http://spglib.sourceforge.net
    Copyright (C) 2008 Atsushi Togo


  The scalable eigensolver library ELPA was used in your run.
  ELPA is essential especially for large systems on hundreds or thousands of CPUs.
  For ELPA, please cite:

    Andreas Marek, Volker Blum, Rainer Johanni, Ville Havu, Bruno Lang,
    Thomas Auckenthaler, Alexander Heinecke, Hans-Joachim Bungartz, and Hermann Lederer,
    'The ELPA Library - Scalable Parallel Eigenvalue Solutions
    for Electronic Structure Theory and Computational Science'
    The Journal of Physics: Condensed Matter 26, 213201 (2014).
    http://dx.doi.org/10.1088/0953-8984/26/21/213201


  The ELSI infrastructure was used in your run to solve the Kohn-Sham electronic structure.
  Please check out http://elsi-interchange.org to learn more.
  If scalability is important for your project, please acknowledge ELSI by citing:

    V. W-z. Yu, F. Corsetti, A. Garcia, W. P. Huhn, M. Jacquelin, W. Jia,
    B. Lange, L. Lin, J. Lu, W. Mi, A. Seifitokaldani, A. Vazquez-Mayagoitia,
    C. Yang, H. Yang, and V. Blum
    'ELSI: A unified software interface for Kohn-Sham electronic structure solvers'
    Computer Physics Communications 222, 267-285 (2018).
    http://dx.doi.org/10.1016/j.cpc.2017.09.007


  For the real-space grid partitioning and parallelization used in this calculation, please cite:

    Ville Havu, Volker Blum, Paula Havu, and Matthias Scheffler,
    'Efficient O(N) integration for all-electron electronic structure calculation'
    'using numerically tabulated basis functions'
    Journal of Computational Physics 228, 8367-8379 (2009).
    http://dx.doi.org/10.1016/j.jcp.2009.08.008

  Of course, there are many other important community references, e.g., those cited in the
  above references. Our list is limited to references that describe implementations in the
  FHI-aims code. The reason is purely practical (length of this list) - please credit others as well.

------------------------------------------------------------
          Leaving FHI-aims.
          Date     :  20220324, Time     :  040545.167

          Computational steps:
          | Number of self-consistency cycles          :           20
          | Number of SCF (re)initializations          :            1

          Detailed time accounting                     :  max(cpu_time)    wall_clock(cpu1)
          | Total time                                 :     2040.624 s        2040.701 s
          | Preparation time                           :        0.558 s           0.566 s
          | Boundary condition initalization           :        0.397 s           0.398 s
          | Grid partitioning                          :        1.467 s           1.467 s
          | Preloading free-atom quantities on grid    :        0.049 s           0.048 s
          | Free-atom superposition energy             :        0.602 s           0.602 s
          | Total time for integrations                :      353.793 s         353.768 s
          | Total time for solution of K.-S. equations :      397.775 s         397.760 s
          | Total time for density & force components  :     1065.349 s        1065.216 s
          | Total time for mixing & preconditioning    :       62.792 s          62.789 s
          | Total time for Hartree multipole update    :        0.279 s           0.282 s
          | Total time for Hartree multipole sum       :      151.878 s         151.875 s
          | Total time for total energy evaluation     :        0.020 s           0.034 s

          Partial memory accounting:
          | Residual value for overall tracked memory usage across tasks :           0.000 MB (should be 0.000 MB)
          | Peak values for overall tracked memory usage (after allocating eigenvalue_tmp):
          |   Minimum:      360.650 MB (on task  1)
          |   Maximum:      370.667 MB (on task  2)
          |   Average:      362.153 MB
          | Largest tracked array allocation (overlap_matrix):
          |   Minimum:       65.970 MB (on task  1)
          |   Maximum:       65.970 MB (on task  1)
          |   Average:       65.970 MB
          Note:  These values currently only include a subset of arrays which are explicitly tracked.
          The "true" memory usage will be greater.

          Have a nice day.
------------------------------------------------------------
