  MPI-parallelism will be employed.
------------------------------------------------------------
          Invoking FHI-aims ...
          Version 171221_1
          Compiled on 2020/09/23 at 19:46:43 on host login.service.

          When using FHI-aims, please cite the following reference:

          Volker Blum, Ralf Gehrke, Felix Hanke, Paula Havu,
          Ville Havu, Xinguo Ren, Karsten Reuter, and Matthias Scheffler,
          'Ab Initio Molecular Simulations with Numeric Atom-Centered Orbitals',
          Computer Physics Communications 180, 2175-2196 (2009)

          For any questions about FHI-aims, please visit the aimsclub website
          with its forums and wiki. Contributions to both the forums and the
          wiki are warmly encouraged - they are for you, and everyone is welcome there.

------------------------------------------------------------



  Date     :  20220721, Time     :  125814.904
  Time zero on CPU 1             :   0.827420000000000E-01  s.
  Internal wall clock time zero  :           427640294.904  s.

  FHI-aims created a unique identifier for this run for later identification
  aims_uuid : 4866A15A-489A-423C-AC45-0196758CF1A9

  Using       20 parallel tasks.
  Task        0 on host node062 reporting.
  Task        1 on host node062 reporting.
  Task        2 on host node062 reporting.
  Task        3 on host node062 reporting.
  Task        4 on host node062 reporting.
  Task        5 on host node062 reporting.
  Task        6 on host node062 reporting.
  Task        7 on host node062 reporting.
  Task        8 on host node062 reporting.
  Task        9 on host node062 reporting.
  Task       10 on host node062 reporting.
  Task       11 on host node062 reporting.
  Task       12 on host node062 reporting.
  Task       13 on host node062 reporting.
  Task       14 on host node062 reporting.
  Task       15 on host node062 reporting.
  Task       16 on host node062 reporting.
  Task       17 on host node062 reporting.
  Task       18 on host node062 reporting.
  Task       19 on host node062 reporting.

  Performing system and environment tests:
  *** Environment variable OMP_NUM_THREADS is not set
  *** For performance reasons you might want to set it to 1
  | Maximum stacksize for task 0: unlimited
  | Maximum stacksize for task 1: unlimited
  | Maximum stacksize for task 2: unlimited
  | Maximum stacksize for task 3: unlimited
  | Maximum stacksize for task 4: unlimited
  | Maximum stacksize for task 5: unlimited
  | Maximum stacksize for task 6: unlimited
  | Maximum stacksize for task 7: unlimited
  | Maximum stacksize for task 8: unlimited
  | Maximum stacksize for task 9: unlimited
  | Maximum stacksize for task 10: unlimited
  | Maximum stacksize for task 11: unlimited
  | Maximum stacksize for task 12: unlimited
  | Maximum stacksize for task 13: unlimited
  | Maximum stacksize for task 14: unlimited
  | Maximum stacksize for task 15: unlimited
  | Maximum stacksize for task 16: unlimited
  | Maximum stacksize for task 17: unlimited
  | Maximum stacksize for task 18: unlimited
  | Maximum stacksize for task 19: unlimited
  | Current stacksize for task 0: unlimited
  | Current stacksize for task 1: unlimited
  | Current stacksize for task 2: unlimited
  | Current stacksize for task 3: unlimited
  | Current stacksize for task 4: unlimited
  | Current stacksize for task 5: unlimited
  | Current stacksize for task 6: unlimited
  | Current stacksize for task 7: unlimited
  | Current stacksize for task 8: unlimited
  | Current stacksize for task 9: unlimited
  | Current stacksize for task 10: unlimited
  | Current stacksize for task 11: unlimited
  | Current stacksize for task 12: unlimited
  | Current stacksize for task 13: unlimited
  | Current stacksize for task 14: unlimited
  | Current stacksize for task 15: unlimited
  | Current stacksize for task 16: unlimited
  | Current stacksize for task 17: unlimited
  | Current stacksize for task 18: unlimited
  | Current stacksize for task 19: unlimited
  | Checking for scalapack...
  | Testing pdtran()...
  | All pdtran() tests passed.

  Obtaining array dimensions for all initial allocations:
  
  -----------------------------------------------------------------------
  Parsing control.in (first pass over file, find array dimensions only).
  The contents of control.in will be repeated verbatim below
  unless switched off by setting 'verbatim_writeout .false.' .
  in the first line of control.in .
  -----------------------------------------------------------------------
  
  #===============================================================================
  # FHI-aims file: ./control.in
  # Created using the Atomic Simulation Environment (ASE)
  # Wed Mar 24 12:41:28 2021
  #===============================================================================
  xc                                 pbe
  sc_accuracy_etot                   1e-06
  sc_accuracy_eev                    0.001
  sc_accuracy_rho                    1e-06
  sc_accuracy_forces                 0.0001
  friction_temperature               300  # default 300
  
    k_grid                           6 6 6
  
  
  
  ################################################################################
  #
  #  FHI-aims code project
  #  VB, Fritz-Haber Institut, 2009
  #
  #  Suggested "light" defaults for Li atom (to be pasted into control.in file)
  #  Be sure to double-check any results obtained with these settings for post-processing,
  #  e.g., with the "tight" defaults and larger basis sets.
  #
  ################################################################################
    species        Li
  #     global species definitions
      nucleus             3
      mass                6.941
  #
      l_hartree           4
  #
      cut_pot             3.5  1.5  1.0
      basis_dep_cutoff    1e-4
  #
      radial_base         29 5.0
      radial_multiplier   1
      angular_grids       specified
        division   0.4484  110
        division   0.5659  194
        division   0.6315  302
  #      division   0.6662  434
  #      division   0.8186  590
  #      division   0.9037  770
  #      division   6.2760  974
  #      outer_grid   974
        outer_grid   302
  ################################################################################
  #
  #  Definition of "minimal" basis
  #
  ################################################################################
  #     valence basis states
      valence      2  s   1.
  #     ion occupancy
      ion_occ      1  s   2.
  ################################################################################
  #
  #  Suggested additional basis functions. For production calculations,
  #  uncomment them one after another (the most important basis functions are
  #  listed first).
  #
  #  Constructed for dimers: 1.80 A, 2.25 A, 2.75 A, 3.50 A, 4.50 A
  #
  ################################################################################
  #  "First tier" - improvements: -189.23 meV to -6.35 meV
       hydro 2 p 1.6
       hydro 2 s 2
       hydro 3 d 2.6
  #  "Second tier" - improvements: -4.69 meV to -0.41 meV
  #     hydro 3 p 4.6
  #     hydro 2 p 1.8
  #     hydro 3 s 6.2
  #     hydro 4 d 4.7
  #     hydro 4 f 4.1
  #  "Third tier" - improvements: -0.20 meV to -0.15 meV
  #     hydro 4 d 0.95
  #     hydro 3 p 6.2
  #     hydro 3 s 1.7
  #  Further functions, listed for completeness
  #     VB: The following functions are only listed for completeness; test very
  #         carefully before any kind of production use. From the point of view
  #         of the basis construction, their main role is to fill up space,
  #         and they are solely determined by the location of the cutoff potential.
  #     hydro 3 p 0.1  # -0.15 meV
  #     hydro 4 d 5    # -0.12 meV
  #     hydro 4 f 0.1  # -0.14 meV
  #     hydro 5 g 0.1  # -0.06 meV
  
  
  ################################################################################
  #
  #  FHI-aims code project
  #  VB, Fritz-Haber Institut, 2010
  #
  #  Suggested "light" defaults for P atom (to be pasted into control.in file)
  #  Be sure to double-check any results obtained with these settings for post-processing,
  #  e.g., with the "tight" defaults and larger basis sets.
  #
  ################################################################################
    species        P
  #     global species definitions
      nucleus             15
      mass                30.973762
  #
      l_hartree           4
  #
      cut_pot             3.5          1.5  1.0
      basis_dep_cutoff    1e-4
  #
      radial_base         43 5.0
      radial_multiplier   1
      angular_grids       specified
        division   0.5527   50
        division   0.8801  110
        division   1.1447  194
        division   1.3165  302
  #      division   1.4113  434
  #      division   1.4781  590
  #      division   1.5482  770
  #      division   1.5845  974
  #      division   2.2606 1202
        outer_grid  302
  ################################################################################
  #
  #  Definition of "minimal" basis
  #
  ################################################################################
  #     valence basis states
      valence      3  s   2.
      valence      3  p   3.
  #     ion occupancy
      ion_occ      3  s   1.
      ion_occ      3  p   2.
  ################################################################################
  #
  #  Suggested additional basis functions. For production calculations,
  #  uncomment them one after another (the most important basis functions are
  #  listed first).
  #
  #  Constructed for dimers: 1.625 A, 1.875 A, 2.5 A, 3.25 A, 4.0 A
  #
  ################################################################################
  #  "First tier" - improvements: -726.20 meV to -35.91 meV
       ionic 3 d auto
       ionic 3 p auto
  #     hydro 4 f 6.2
  #     hydro 5 g 8.6
       ionic 3 s auto
  #  "Second tier" - improvements: -16.02 meV to -1.71 meV
  #     hydro 4 d 6.2
  #     hydro 4 p 9.2
  #     hydro 5 f 9.8
  #     hydro 1 s 0.7
  #     hydro 5 g 13.2
  #  "Third tier" - improvements: -1.82 meV to -0.20 meV
  #     hydro 3 p 2.5
  #     hydro 4 d 6.4
  #     hydro 5 f 11.2
  #     hydro 2 s 1.5
  #  "Fourth tier" - improvements: -0.91 meV to -0.17 meV
  #     hydro 3 d 16.8
  #     hydro 5 g 18
  #     hydro 4 p 4.5
  #     hydro 3 s 2.1
  #  Further basis functions that fell out of the optimization - < -0.09 meV
  #     hydro 4 p 10.4
  #     hydro 4 d 17.6
  #     hydro 4 s 11.2
  ################################################################################
  #
  #  FHI-aims code project
  #  VB, Fritz-Haber Institut, 2009
  #
  #  Suggested "light" defaults for S atom (to be pasted into control.in file)
  #  Be sure to double-check any results obtained with these settings for post-processing,
  #  e.g., with the "tight" defaults and larger basis sets.
  #
  ################################################################################
    species        S
  #     global species definitions
      nucleus             16
      mass                32.065
  #
      l_hartree           4
  #
      cut_pot             3.5          1.5  1.0
      basis_dep_cutoff    1e-4
  #
      radial_base         44 5.0
      radial_multiplier   1
      angular_grids       specified
        division   0.4665  110
        division   0.5810  194
        division   0.7139  302
  #      division   0.8274  434
  #      division   0.9105  590
  #      division   1.0975  770
  #      division   1.2028  974
  #      outer_grid  974
        outer_grid  302
  ################################################################################
  #
  #  Definition of "minimal" basis
  #
  ################################################################################
  #     valence basis states
      valence      3  s   2.
      valence      3  p   4.
  #     ion occupancy
      ion_occ      3  s   1.
      ion_occ      3  p   3.
  ################################################################################
  #
  #  Suggested additional basis functions. For production calculations,
  #  uncomment them one after another (the most important basis functions are
  #  listed first).
  #
  #  Constructed for dimers: 1.6 A, 1.9 A, 2.5 A, 3.25 A, 4.0 A
  #
  ################################################################################
  #  "First tier" - improvements: -652.81 meV to -45.53 meV
       ionic 3 d auto
       hydro 2 p 1.8
  #     hydro 4 f 7
       ionic 3 s auto
  #  "Second tier" - improvements: -30.20 meV to -1.74 meV
  #     hydro 4 d 6.2
  #     hydro 5 g 10.8
  #     hydro 4 p 4.9
  #     hydro 5 f 10
  #     hydro 1 s 0.8
  #  "Third tier" - improvements: -1.04 meV to -0.20 meV
  #     hydro 3 d 3.9
  #     hydro 3 d 2.7
  #     hydro 5 g 12
  #     hydro 4 p 10.4
  #     hydro 5 f 12.4
  #     hydro 2 s 1.9
  #  "Fourth tier" - improvements: -0.35 meV to -0.06 meV
  #     hydro 4 d 10.4
  #     hydro 4 p 7.2
  #     hydro 4 d 10
  #     hydro 5 g 19.2
  #     hydro 4 s 12
  
  ################################################################################
  #
  #  FHI-aims code project
  #  VB, Fritz-Haber Institut, 2009
  #
  #  Suggested "light" defaults for Cl atom (to be pasted into control.in file)
  #  Be sure to double-check any results obtained with these settings for post-processing,
  #  e.g., with the "tight" defaults and larger basis sets.
  #
  ################################################################################
    species        Cl
  #     global species definitions
      nucleus             17
      mass                35.453
  #
      l_hartree           4
  #
      cut_pot             3.5          1.5  1.0
      basis_dep_cutoff    1e-4
  #
      radial_base         45 5.0
      radial_multiplier   1
      angular_grids       specified
        division   0.4412  110
        division   0.5489  194
        division   0.6734  302
  #      division   0.7794  434
  #      division   0.9402  590
  #      division   1.0779  770
  #      division   1.1792  974
  #      outer_grid  974
        outer_grid  302
  ################################################################################
  #
  #  Definition of "minimal" basis
  #
  ################################################################################
  #     valence basis states
      valence      3  s   2.
      valence      3  p   5.
  #     ion occupancy
      ion_occ      3  s   1.
      ion_occ      3  p   4.
  ################################################################################
  #
  #  Suggested additional basis functions. For production calculations,
  #  uncomment them one after another (the most important basis functions are
  #  listed first).
  #
  #  Constructed for dimers: 1.65 A, 2.0 A, 2.5 A, 3.25 A, 4.0 A
  #
  ################################################################################
  #  "First tier" - improvements: -429.57 meV to -15.03 meV
       ionic 3 d auto
       hydro 2 p 1.9
  #     hydro 4 f 7.4
       ionic 3 s auto
  #     hydro 5 g 10.4
  #  "Second tier" - improvements: -7.84 meV to -0.48 meV
  #     hydro 3 d 3.3
  #     hydro 5 f 9.8
  #     hydro 1 s 0.75
  #     hydro 5 g 11.2
  #     hydro 4 p 10.4
  #  "Third tier" - improvements: -1.00 meV to -0.12 meV
  #     hydro 4 d 12.8
  #     hydro 4 f 4.6
  #     hydro 4 d 10.8
  #     hydro 2 s 1.8
  #     hydro 3 p 3
  #  Further functions that fell out - improvements: -0.10 meV and below
  #     hydro 5 f 14.4
  #     hydro 4 s 12.8
  #     hydro 3 d 11.6
  #     hydro 4 s 4.1
  
  -----------------------------------------------------------------------
  Completed first pass over input file control.in .
  -----------------------------------------------------------------------
  
  
  -----------------------------------------------------------------------
  Parsing geometry.in (first pass over file, find array dimensions only).
  The contents of geometry.in will be repeated verbatim below
  unless switched off by setting 'verbatim_writeout .false.' .
  in the first line of geometry.in .
  -----------------------------------------------------------------------
  
  #=======================================================
  # FHI-aims file: /home/gz_fan/Documents/ML/train/battery/CCS/CCS/test/LiCl/aims_geo/geometry.in.6
  # Created using the Atomic Simulation Environment (ASE)
  # Thu Jul 21 15:40:07 2022
  #=======================================================
  lattice_vector 5.0496930400000002 0.0000000000000000 0.0000000000000000
  lattice_vector 0.0000000000000000 5.0496930400000002 0.0000000000000000
  lattice_vector 0.0000000000000000 0.0000000000000000 5.0496930400000002
  atom 0.0000000000000000 0.0000000000000000 0.0000000000000000 Li
  atom 0.0000000000000000 2.5248465200000001 2.5248465200000001 Li
  atom 2.5248465200000001 0.0000000000000000 2.5248465200000001 Li
  atom 2.5248465200000001 2.5248465200000001 0.0000000000000000 Li
  atom 2.5248465200000001 0.0000000000000000 0.0000000000000000 Cl
  atom 2.5248465200000001 2.5248465200000001 2.5248465200000001 Cl
  atom 0.0000000000000000 0.0000000000000000 2.5248465200000001 Cl
  atom 0.0000000000000000 2.5248465200000001 0.0000000000000000 Cl
  
  -----------------------------------------------------------------------
  Completed first pass over input file geometry.in .
  -----------------------------------------------------------------------
  

  Basic array size parameters:
  | Number of species                 :        4
  | Number of atoms                   :        8
  | Number of lattice vectors         :        3
  | Max. basis fn. angular momentum   :        2
  | Max. atomic/ionic basis occupied n:        3
  | Max. number of basis fn. types    :        3
  | Max. radial fns per species/type  :        5
  | Max. logarithmic grid size        :     1362
  | Max. radial integration grid size :       45
  | Max. angular integration grid size:      302
  | Max. angular grid division number :        8
  | Radial grid for Hartree potential :     1362
  | Number of spin channels           :        1

------------------------------------------------------------
          Reading file control.in.
------------------------------------------------------------
  XC: Using PBE gradient-corrected functionals.
  Convergence accuracy of total energy:  0.1000E-05
  Convergence accuracy of sum of eigenvalues:  0.1000E-02
  Convergence accuracy of self-consistent charge density:  0.1000E-05
  Convergence accuracy of forces:  0.1000E-03
  Friction is calculated at temperature of   0.3000E+03 K
  Found k-point grid:         6         6         6
 
  Reading configuration options for species Li                  .
  | Found nuclear charge :   3.0000
  | Found atomic mass :    6.94100000000000      amu
  | Found l_max for Hartree potential  :   4
  | Found cutoff potl. onset [A], width [A], scale factor :    3.50000    1.50000    1.00000
  | Threshold for basis-dependent cutoff potential is   0.100000E-03
  | Found data for basic radial integration grid :    29 points, outermost radius =    5.000 A
  | Found multiplier for basic radial grid :   1
  | Found angular grid specification: user-specified.
  | Specified grid contains     4 separate shells.
  | Check grid settings after all constraints further below.
  | Found free-atom valence shell :  2 s   1.000
  | Found free-ion valence shell :  1 s   2.000
  | Found hydrogenic basis function :  2 p   1.600
  | Found hydrogenic basis function :  2 s   2.000
  | Found hydrogenic basis function :  3 d   2.600
  Species Li                  : Missing cutoff potential type.
  Defaulting to exp(1/x)/(1-x)^2 type cutoff potential.
  Species Li: No 'logarithmic' tag. Using default grid for free atom:
  | Default logarithmic grid data [bohr] : 0.1000E-03 0.1000E+03 0.1012E+01
  Species Li: On-site basis accuracy parameter (for Gram-Schmidt orthonormalisation) not specified.
  Using default value basis_acc =  0.1000000E-03.
  Species Li                  : Using default innermost maximum threshold i_radial=  2 for radial functions.
  Species Li                  : Default cutoff onset for free atom density etc. : 0.35000000E+01 AA.
  Species Li                  : Basic radial grid will be enhanced according to radial_multiplier =   1, to contain    29 grid points.
 
  Reading configuration options for species P                   .
  | Found nuclear charge :  15.0000
  | Found atomic mass :    30.9737620000000      amu
  | Found l_max for Hartree potential  :   4
  | Found cutoff potl. onset [A], width [A], scale factor :    3.50000    1.50000    1.00000
  | Threshold for basis-dependent cutoff potential is   0.100000E-03
  | Found data for basic radial integration grid :    43 points, outermost radius =    5.000 A
  | Found multiplier for basic radial grid :   1
  | Found angular grid specification: user-specified.
  | Specified grid contains     5 separate shells.
  | Check grid settings after all constraints further below.
  | Found free-atom valence shell :  3 s   2.000
  | Found free-atom valence shell :  3 p   3.000
  | Found free-ion valence shell :  3 s   1.000
  | Found free-ion valence shell :  3 p   2.000
  | Found ionic basis function :  3 d , default cutoff radius.
  | Found ionic basis function :  3 p , default cutoff radius.
  | Found ionic basis function :  3 s , default cutoff radius.
  Species P                   : Missing cutoff potential type.
  Defaulting to exp(1/x)/(1-x)^2 type cutoff potential.
  Species P : No 'logarithmic' tag. Using default grid for free atom:
  | Default logarithmic grid data [bohr] : 0.1000E-03 0.1000E+03 0.1012E+01
  | Will include ionic basis functions of  2.0-fold positive P                    ion.
  Species P : On-site basis accuracy parameter (for Gram-Schmidt orthonormalisation) not specified.
  Using default value basis_acc =  0.1000000E-03.
  Species P                   : Using default innermost maximum threshold i_radial=  2 for radial functions.
  Species P                   : Default cutoff onset for free atom density etc. : 0.35000000E+01 AA.
  Species P                   : Basic radial grid will be enhanced according to radial_multiplier =   1, to contain    43 grid points.
 
  Reading configuration options for species S                   .
  | Found nuclear charge :  16.0000
  | Found atomic mass :    32.0650000000000      amu
  | Found l_max for Hartree potential  :   4
  | Found cutoff potl. onset [A], width [A], scale factor :    3.50000    1.50000    1.00000
  | Threshold for basis-dependent cutoff potential is   0.100000E-03
  | Found data for basic radial integration grid :    44 points, outermost radius =    5.000 A
  | Found multiplier for basic radial grid :   1
  | Found angular grid specification: user-specified.
  | Specified grid contains     4 separate shells.
  | Check grid settings after all constraints further below.
  | Found free-atom valence shell :  3 s   2.000
  | Found free-atom valence shell :  3 p   4.000
  | Found free-ion valence shell :  3 s   1.000
  | Found free-ion valence shell :  3 p   3.000
  | Found ionic basis function :  3 d , default cutoff radius.
  | Found hydrogenic basis function :  2 p   1.800
  | Found ionic basis function :  3 s , default cutoff radius.
  Species S                   : Missing cutoff potential type.
  Defaulting to exp(1/x)/(1-x)^2 type cutoff potential.
  Species S : No 'logarithmic' tag. Using default grid for free atom:
  | Default logarithmic grid data [bohr] : 0.1000E-03 0.1000E+03 0.1012E+01
  | Will include ionic basis functions of  2.0-fold positive S                    ion.
  Species S : On-site basis accuracy parameter (for Gram-Schmidt orthonormalisation) not specified.
  Using default value basis_acc =  0.1000000E-03.
  Species S                   : Using default innermost maximum threshold i_radial=  2 for radial functions.
  Species S                   : Default cutoff onset for free atom density etc. : 0.35000000E+01 AA.
  Species S                   : Basic radial grid will be enhanced according to radial_multiplier =   1, to contain    44 grid points.
 
  Reading configuration options for species Cl                  .
  | Found nuclear charge :  17.0000
  | Found atomic mass :    35.4530000000000      amu
  | Found l_max for Hartree potential  :   4
  | Found cutoff potl. onset [A], width [A], scale factor :    3.50000    1.50000    1.00000
  | Threshold for basis-dependent cutoff potential is   0.100000E-03
  | Found data for basic radial integration grid :    45 points, outermost radius =    5.000 A
  | Found multiplier for basic radial grid :   1
  | Found angular grid specification: user-specified.
  | Specified grid contains     4 separate shells.
  | Check grid settings after all constraints further below.
  | Found free-atom valence shell :  3 s   2.000
  | Found free-atom valence shell :  3 p   5.000
  | Found free-ion valence shell :  3 s   1.000
  | Found free-ion valence shell :  3 p   4.000
  | Found ionic basis function :  3 d , default cutoff radius.
  | Found hydrogenic basis function :  2 p   1.900
  | Found ionic basis function :  3 s , default cutoff radius.
  Species Cl                  : Missing cutoff potential type.
  Defaulting to exp(1/x)/(1-x)^2 type cutoff potential.
  Species Cl: No 'logarithmic' tag. Using default grid for free atom:
  | Default logarithmic grid data [bohr] : 0.1000E-03 0.1000E+03 0.1012E+01
  | Will include ionic basis functions of  2.0-fold positive Cl                   ion.
  Species Cl: On-site basis accuracy parameter (for Gram-Schmidt orthonormalisation) not specified.
  Using default value basis_acc =  0.1000000E-03.
  Species Cl                  : Using default innermost maximum threshold i_radial=  2 for radial functions.
  Species Cl                  : Default cutoff onset for free atom density etc. : 0.35000000E+01 AA.
  Species Cl                  : Basic radial grid will be enhanced according to radial_multiplier =   1, to contain    45 grid points.
 
  Finished reading input file 'control.in'. Consistency checks are next.
 
  MPI_IN_PLACE appears to work with this MPI implementation.
  | Keeping use_mpi_in_place .true. (see manual).
  Target number of points in a grid batch is not set. Defaulting to  100
  Method for grid partitioning is not set. Defaulting to parallel hash+maxmin partitioning.
  Batch size limit is not set. Defaulting to    200
  By default, will store active basis functions for each batch.
  If in need of memory, prune_basis_once .false. can be used to disable this option.
  communication_type for Hartree potential was not specified.
  Defaulting to calc_hartree .
  Defaulting to Pulay charge density mixer.
  Pulay mixer: Number of relevant iterations not set.
  Defaulting to    8 iterations.
  Pulay mixer: Number of initial linear mixing iterations not set.
  Defaulting to    0 iterations.
  Work space size for distributed Hartree potential not set.
  Defaulting to   0.200000E+03 MB.
  Mixing parameter for charge density mixing has not been set.
  Using default: charge_mix_param =     0.0500.
  The mixing parameter will be adjusted in iteration number     2 of the first full s.c.f. cycle only.
  Algorithm-dependent basis array size parameters:
  | n_max_pulay                         :        8
  Maximum number of self-consistency iterations not provided.
  Presetting  1000 iterations.
  Presetting      1001 iterations before the initial mixing cycle
  is restarted anyway using the sc_init_iter criterion / keyword.
  Presetting a factor      1.000 between actual scf density residual
  and density convergence criterion sc_accuracy_rho below which sc_init_iter
  takes no effect.
  Geometry relaxation not requested: no relaxation will be performed.
  Handling of forces: Unphysical translation and rotation will be removed from forces.
  No accuracy limit for integral partition fn. given. Defaulting to  0.1000E-14.
  No threshold value for u(r) in integrations given. Defaulting to  0.1000E-05.
  No occupation type (smearing scheme) given. Defaulting to Gaussian broadening, width =  0.1000E-01 eV.
  The width will be adjusted in iteration number     2 of the first full s.c.f. cycle only.
  S.C.F. convergence parameters will be adjusted in iteration number     2 of the first full s.c.f. cycle only.
  No accuracy for occupation numbers given. Defaulting to  0.1000E-12.
  No threshold value for occupation numbers given. Defaulting to  0.0000E+00.
  No accuracy for fermi level given. Defaulting to  0.1000E-19.
  Maximum # of iterations to find E_F not set. Defaulting to  200.
  Preferred method for the eigenvalue solver ('KS_method') not specified in 'control.in'.
  Defaulting to serial version, 'lapack_fast', since more k-points than CPUs available.
  Will not use alltoall communication since running on < 1024 CPUs.
  Threshold for basis singularities not set.
  Default threshold for basis singularities:  0.1000E-04
  partition_type (choice of integration weights) for integrals was not specified.
  | Using a version of the partition function of Stratmann and coworkers ('stratmann_smoother').
  | At each grid point, the set of atoms used to build the partition table is smoothly restricted to
  | only those atoms whose free-atom density would be non-zero at that grid point.
  Partitioning for Hartree potential was not defined. Using partition_type for integrals.
  | Adjusted default value of keyword multip_moments_threshold to:       0.10000000E-11
  | This value may affect high angular momentum components of the Hartree potential in periodic systems.
  Spin handling was not defined in control.in. Defaulting to unpolarized case.
  Angular momentum expansion for Kerker preconditioner not set explicitly.
  | Using default value of   0
  No explicit requirement for turning off preconditioner.
  | By default, it will be turned off when the charge convergence reaches
  | sc_accuracy_rho  =   0.100000E-05
  | sc_accuracy_eev  =   0.100000E-02
  | sc_accuracy_etot =   0.100000E-05
  No special mixing parameter while Kerker preconditioner is on.
  Using default: charge_mix_param =     0.0500.
  No q(lm)/r^(l+1) cutoff set for long-range Hartree potential.
  | Using default value of  0.100000E-09 .
  | Verify using the multipole_threshold keyword.
  Defaulting to new monopole extrapolation.
  Density update method: automatic selection selected.
  Using density matrix based charge density update.
  Using density matrix based charge density update.
  Using packed matrix style: index .
  Defaulting to use time-reversal symmetry for k-point grid.
------------------------------------------------------------


------------------------------------------------------------
          Reading geometry description geometry.in.
------------------------------------------------------------
 * Warning! You did not set the 'relativistic' flag in input file 'control.in'.
 * Since you are not attempting to treat any elements beyond Ca(Z=20), FHI-aims
 * will default to 'relativistic none'.
 * You must ensure that this is really what you want!!
 * For example, DO NOT compute total-energy differences between results from
 * different settings of the 'relativistic' flag.
  Input structure read successfully.
  The structure contains        8 atoms,  and a total of         80.000 electrons.

  Input geometry:
  | Unit cell:
  |        5.04969304        0.00000000        0.00000000
  |        0.00000000        5.04969304        0.00000000
  |        0.00000000        0.00000000        5.04969304
  | Atomic structure:
  |       Atom                x [A]            y [A]            z [A]
  |    1: Species Li            0.00000000        0.00000000        0.00000000
  |    2: Species Li            0.00000000        2.52484652        2.52484652
  |    3: Species Li            2.52484652        0.00000000        2.52484652
  |    4: Species Li            2.52484652        2.52484652        0.00000000
  |    5: Species Cl            2.52484652        0.00000000        0.00000000
  |    6: Species Cl            2.52484652        2.52484652        2.52484652
  |    7: Species Cl            0.00000000        0.00000000        2.52484652
  |    8: Species Cl            0.00000000        2.52484652        0.00000000

  Lattice parameters for 3D lattice (in Angstroms) :     5.049693    5.049693    5.049693
  Angle(s) between unit vectors (in degrees)      :    90.000000   90.000000   90.000000

  |

  | The smallest distance between any two atoms is         2.52484652 AA.
  |
  | The first atom of this pair is atom number                      1 .
  | The second atom of this pair is atom number                     5 .
  | Wigner-Seitz cell of the first atom image           0     0     0 .
  | (The Wigner-Seitz cell of the second atom is 0 0 0  by definition.)

  Symmetry information by spglib:
  | Precision set to  0.1E-04
  | Number of Operations  : 192
  | Space group           : 225
  | International         : Fm-3m     3
  | Schoenflies           : Oh^5

  Quantities derived from the lattice vectors:
  | Reciprocal lattice vector 1:  1.244271  0.000000  0.000000
  | Reciprocal lattice vector 2:  0.000000  1.244271  0.000000
  | Reciprocal lattice vector 3:  0.000000  0.000000  1.244271
  | Unit cell volume                               :   0.128764E+03  A^3

  Range separation radius for Ewald summation (hartree_convergence_parameter):      3.58557850 bohr.

  Fractional coordinates:
                         L1                L2                L3
       atom_frac         0.00000000        0.00000000        0.00000000  Li
       atom_frac         0.00000000        0.50000000        0.50000000  Li
       atom_frac         0.50000000        0.00000000        0.50000000  Li
       atom_frac         0.50000000        0.50000000        0.00000000  Li
       atom_frac         0.50000000        0.00000000        0.00000000  Cl
       atom_frac         0.50000000        0.50000000        0.50000000  Cl
       atom_frac         0.00000000        0.00000000        0.50000000  Cl
       atom_frac         0.00000000        0.50000000        0.00000000  Cl

  Number of empty states per atom not set in control.in - providing a guess from actual geometry.
  | Total number of empty states used during s.c.f. cycle:       18
  If you use a very high smearing, use empty_states (per atom!) in control.in to increase this value.

  Structure-dependent array size parameters: 
  | Maximum number of distinct radial functions  :       29
  | Maximum number of basis functions            :      116
  | Number of Kohn-Sham states (occupied + empty):       58
------------------------------------------------------------

------------------------------------------------------------
          Preparing all fixed parts of the calculation.
------------------------------------------------------------
  Determining machine precision:
    2.225073858507201E-308
  Setting up grids for atomic and cluster calculations.

  Creating wave function, potential, and density for free atoms.

  Species: Li

  List of occupied orbitals and eigenvalues:
    n    l              occ      energy [Ha]    energy [eV]
    1    0           2.0000        -1.876896       -51.0729
    2    0           1.0000        -0.084105        -2.2886


  Species: P

  List of occupied orbitals and eigenvalues:
    n    l              occ      energy [Ha]    energy [eV]
    1    0           2.0000       -76.351489     -2077.6297
    2    0           2.0000        -6.353717      -172.8934
    3    0           2.0000        -0.506059       -13.7706
    2    1           6.0000        -4.569386      -124.3393
    3    1           3.0000        -0.198107        -5.3908


  Species: S

  List of occupied orbitals and eigenvalues:
    n    l              occ      energy [Ha]    energy [eV]
    1    0           2.0000       -88.105825     -2397.4815
    2    0           2.0000        -7.730144      -210.3479
    3    0           2.0000        -0.627748       -17.0819
    2    1           6.0000        -5.747971      -156.4103
    3    1           4.0000        -0.255786        -6.9603


  Species: Cl

  List of occupied orbitals and eigenvalues:
    n    l              occ      energy [Ha]    energy [eV]
    1    0           2.0000      -100.709620     -2740.4482
    2    0           2.0000        -9.221874      -250.9399
    3    0           2.0000        -0.753366       -20.5001
    2    1           6.0000        -7.038743      -191.5339
    3    1           5.0000        -0.315359        -8.5813

  Creating fixed part of basis set: Ionic, confined, hydrogenic.
 
  Li                   hydrogenic:
 
  List of hydrogenic basis orbitals: 
    n    l      effective z      eigenvalue [eV]  inner max. [A]     outer max. [A]     outer radius [A]   
    2    1         1.600000        -8.6069           1.303334           1.303334           4.591005
    2    0         2.000000       -13.5631           0.203259           1.385485           4.591005
    3    2         2.600000        -9.9241           1.769240           1.769240           4.591005
 
 
  P                    ion:

  List of free ionic orbitals and eigenvalues:
    n    l      energy [Ha]    energy [eV]
    1    0       -77.297133     -2103.3620
    2    0        -7.273914      -197.9333
    3    0        -1.267536       -34.4914
    2    1        -5.491316      -149.4263
    3    1        -0.913470       -24.8568


  List of ionic basis orbitals and eigenvalues:
    n    l      energy [Ha]    energy [eV]    outer radius [A]
    3    2        -0.457308       -12.4440       4.554583
    3    1        -0.913443       -24.8560       4.337222
    3    0        -1.267519       -34.4910       3.885335

 
  S                    ion:

  List of free ionic orbitals and eigenvalues:
    n    l      energy [Ha]    energy [eV]
    1    0       -89.127201     -2425.2745
    2    0        -8.724378      -237.4024
    3    0        -1.464668       -39.8556
    2    1        -6.744348      -183.5230
    3    1        -1.048520       -28.5317


  List of ionic basis orbitals and eigenvalues:
    n    l      energy [Ha]    energy [eV]    outer radius [A]
    3    2        -0.496135       -13.5005       4.539062
    3    0        -1.464653       -39.8552       3.642502

 
  S                    hydrogenic:
 
  List of hydrogenic basis orbitals: 
    n    l      effective z      eigenvalue [eV]  inner max. [A]     outer max. [A]     outer radius [A]   
    2    1         1.800000       -10.9749           1.168531           1.168531           4.594893
 
 
  Cl                   ion:

  List of free ionic orbitals and eigenvalues:
    n    l      energy [Ha]    energy [eV]
    1    0      -101.807232     -2770.3157
    2    0       -10.290876      -280.0290
    3    0        -1.664625       -45.2967
    2    1        -8.110237      -220.6908
    3    1        -1.183915       -32.2160


  List of ionic basis orbitals and eigenvalues:
    n    l      energy [Ha]    energy [eV]    outer radius [A]
    3    2        -0.529186       -14.3999       4.541334
    3    0        -1.664610       -45.2963       3.428237

 
  Cl                   hydrogenic:
 
  List of hydrogenic basis orbitals: 
    n    l      effective z      eigenvalue [eV]  inner max. [A]     outer max. [A]     outer radius [A]   
    2    1         1.900000       -12.2492           1.113321           1.113321           4.597192
 

  Adding cutoff potential to free-atom effective potential.
  Creating atomic-like basis functions for current effective potential.

  Species Li                  :

  List of atomic basis orbitals and eigenvalues:
    n    l      energy [Ha]    energy [eV]    outer radius [A]
    1    0        -1.876896       -51.0729       4.062706
    2    0        -0.084105        -2.2886       4.591005


  Species P                   :

  List of atomic basis orbitals and eigenvalues:
    n    l      energy [Ha]    energy [eV]    outer radius [A]
    1    0       -76.351489     -2077.6297       0.736837
    2    0        -6.353717      -172.8934       2.532824
    3    0        -0.506059       -13.7706       4.499242
    2    1        -4.569386      -124.3393       2.862183
    3    1        -0.198107        -5.3908       4.554583


  Species S                   :

  List of atomic basis orbitals and eigenvalues:
    n    l      energy [Ha]    energy [eV]    outer radius [A]
    1    0       -88.105825     -2397.4815       0.682391
    2    0        -7.730144      -210.3479       2.317169
    3    0        -0.627748       -17.0819       4.483910
    2    1        -5.747971      -156.4103       2.555240
    3    1        -0.255786        -6.9603       4.539062


  Species Cl                  :

  List of atomic basis orbitals and eigenvalues:
    n    l      energy [Ha]    energy [eV]    outer radius [A]
    1    0      -100.709620     -2740.4482       0.642251
    2    0        -9.221874      -250.9399       2.128190
    3    0        -0.753366       -20.5001       4.431645
    2    1        -7.038743      -191.5339       2.346844
    3    1        -0.315359        -8.5813       4.541334

  Assembling full basis from fixed parts.
  | Species Li :   atomic orbital   1 s accepted.
  | Species Li :   atomic orbital   2 s accepted.
  | Species Li :    hydro orbital   2 s accepted.
  | Species Li :    hydro orbital   2 p accepted.
  | Species Li :    hydro orbital   3 d accepted.
  | Species P :   atomic orbital   1 s accepted.
  | Species P :   atomic orbital   2 s accepted.
  | Species P :    ionic orbital   3 s accepted.
  | Species P :   atomic orbital   3 s accepted.
  | Species P :   atomic orbital   2 p accepted.
  | Species P :    ionic orbital   3 p accepted.
  | Species P :   atomic orbital   3 p accepted.
  | Species P :    ionic orbital   3 d accepted.
  | Species S :   atomic orbital   1 s accepted.
  | Species S :   atomic orbital   2 s accepted.
  | Species S :    ionic orbital   3 s accepted.
  | Species S :   atomic orbital   3 s accepted.
  | Species S :   atomic orbital   2 p accepted.
  | Species S :   atomic orbital   3 p accepted.
  | Species S :    hydro orbital   2 p accepted.
  | Species S :    ionic orbital   3 d accepted.
  | Species Cl :   atomic orbital   1 s accepted.
  | Species Cl :   atomic orbital   2 s accepted.
  | Species Cl :    ionic orbital   3 s accepted.
  | Species Cl :   atomic orbital   3 s accepted.
  | Species Cl :   atomic orbital   2 p accepted.
  | Species Cl :   atomic orbital   3 p accepted.
  | Species Cl :    hydro orbital   2 p accepted.
  | Species Cl :    ionic orbital   3 d accepted.
 
  Basis size parameters after reduction:
  | Total number of radial functions:       29
  | Total number of basis functions :      116
 
  Per-task memory consumption for arrays in subroutine allocate_ext:
  |           7.588648MB.
  Testing on-site integration grid accuracy.
  |  Species  Function  <phi|h_atom|phi> (log., in eV)  <phi|h_atom|phi> (rad., in eV)
           1        1                -51.0729407432                -51.0729328795
           1        2                 -2.3261068990                 -2.3227046518
           1        3                 17.1966930198                 17.2358027191 ***
           1        4                  0.3867256281                  0.3982841734
           1        5                  6.2743141416                  6.2817896417
           2        6              -2077.6297159538              -2077.6288551184
           2        7               -172.8934457906               -172.8934403880
           2        8                -13.4653967551                -13.4655200798
           2        9                  6.4162845277                  6.4013396720
           2       10               -124.3393201040               -124.3393200061
           2       11                 -4.7560266034                 -4.7560495157
           2       12                  6.5873401476                  6.4958904717 ***
           2       13                  5.2911719464                  5.2826493609
           3       14              -2397.4814915323              -2397.4804563634
           3       15               -210.3479335736               -210.3479265952
           3       16                -16.8079362322                -16.8079092816
           3       17                  7.5772439785                  7.5675998324
           3       18               -156.4102581151               -156.4102580951
           3       19                 -6.9617737483                 -6.9640288036
           3       20                  7.5696988470                  7.5151244831 ***
           3       21                  6.0973034823                  6.0928113248
           4       22              -2740.4481953768              -2740.4469735573
           4       23               -250.9399497423               -250.9399403187
           4       24                -20.2462734235                -20.2462512680
           4       25                  8.9460051782                  8.9510436705
           4       26               -191.5339459398               -191.5339455009
           4       27                 -8.5819075957                 -8.5827488985
           4       28                  8.1339828089                  8.0979459360 ***
           4       29                  7.0302175114                  7.0277664253
 * Note: Onsite integrals marked "***" above are less accurate than
 * onsite_accuracy_threshold =    0.03000 eV. Usually, this is harmless.
 * When in doubt, tighten the "radial" and/or "radial_multiplier" flags to check.

  Preparing densities etc. for the partition functions (integrals / Hartree potential).

  Preparations completed.
  max(cpu_time)          :      0.413 s.
  Wall clock time (cpu1) :      0.411 s.
------------------------------------------------------------

------------------------------------------------------------
          Begin self-consistency loop: Initialization.

          Date     :  20220721, Time     :  125815.502
------------------------------------------------------------

  Initializing index lists of integration centers etc. from given atomic structure:
  Mapping all atomic coordinates to central unit cell.

  Initializing the k-points
          Using symmetry for reducing the k-points
  | k-points reduced from:      216 to      112
  | Number of k-points                             :       112
  The eigenvectors in the calculations are COMPLEX.
  | K-points in task   0:         5
  | K-points in task   1:         6
  | K-points in task   2:         6
  | K-points in task   3:         6
  | K-points in task   4:         6
  | K-points in task   5:         6
  | K-points in task   6:         6
  | K-points in task   7:         6
  | K-points in task   8:         6
  | K-points in task   9:         6
  | K-points in task  10:         6
  | K-points in task  11:         6
  | K-points in task  12:         6
  | K-points in task  13:         5
  | K-points in task  14:         5
  | K-points in task  15:         5
  | K-points in task  16:         5
  | K-points in task  17:         5
  | K-points in task  18:         5
  | K-points in task  19:         5
  | Number of basis functions in the Hamiltonian integrals :      1641
  | Number of basis functions in a single unit cell        :       116
  | Number of centers in hartree potential         :      1064
  | Number of centers in hartree multipole         :       552
  | Number of centers in electron density summation:       408
  | Number of centers in basis integrals           :       408
  | Number of centers in integrals                 :       125
  | Number of centers in hamiltonian               :       408
  | Consuming        143 KiB for k_phase.
  | Number of super-cells (origin) [n_cells]                     :         729
  | Number of super-cells (after PM_index) [n_cells]             :          82
  | Number of super-cells in hamiltonian [n_cells_in_hamiltonian]:          82
  | Size of matrix packed + index [n_hamiltonian_matrix_size] :      149573
  Partitioning the integration grid into batches with parallel hashing+maxmin method.
  | Number of batches:      810
  | Maximal batch size:     119
  | Minimal batch size:      51
  | Average batch size:      75.042
  | Standard deviation of batch sizes:      19.141

  Integration load balanced across    20 MPI tasks.
  Work distribution over tasks is as follows:
  Task     0 has       3055 integration points.
  Task     1 has       3017 integration points.
  Task     2 has       3032 integration points.
  Task     3 has       3030 integration points.
  Task     4 has       3032 integration points.
  Task     5 has       3021 integration points.
  Task     6 has       3029 integration points.
  Task     7 has       3021 integration points.
  Task     8 has       3069 integration points.
  Task     9 has       3048 integration points.
  Task    10 has       3041 integration points.
  Task    11 has       3036 integration points.
  Task    12 has       3038 integration points.
  Task    13 has       3064 integration points.
  Task    14 has       3044 integration points.
  Task    15 has       3012 integration points.
  Task    16 has       3027 integration points.
  Task    17 has       3056 integration points.
  Task    18 has       3064 integration points.
  Task    19 has       3048 integration points.
  Initializing partition tables, free-atom densities, potentials, etc. across the integration grid (initialize_grid_storage).
  | initialize_grid_storage: Actual outermost partition radius vs. multipole_radius_free
  | (-- VB: in principle, multipole_radius_free should be larger, hence this output)
  | Species        1: Confinement radius =              4.999999999999999 AA, multipole_radius_free =              5.001180127821857 AA.
  | Species        1: outer_partition_radius set to              5.001180127821857 AA .
  | Species        2: Confinement radius =              4.999999999999999 AA, multipole_radius_free =              5.022530438398565 AA.
  | Species        2: outer_partition_radius set to              5.022530438398565 AA .
  | Species        3: Confinement radius =              4.999999999999999 AA, multipole_radius_free =              5.005414751018925 AA.
  | Species        3: outer_partition_radius set to              5.005414751018925 AA .
  | Species        4: Confinement radius =              4.999999999999999 AA, multipole_radius_free =              5.007919576009533 AA.
  | Species        4: outer_partition_radius set to              5.007919576009533 AA .
  | Original list of interatomic distances with         408 x        408 entries is created.
  | Net number of integration points:    60784
  | of which are non-zero points    :    53288
  | Numerical average free-atom electrostatic potential    :    -11.02008864 eV
  Renormalizing the initial density to the exact electron count on the 3D integration grid.
  | Initial density: Formal number of electrons (from input files) :      80.0000000000
  | Integrated number of electrons on 3D grid     :      80.0076770446
  | Charge integration error                      :       0.0076770446
  | Normalization factor for density and gradient :       0.9999040462
  Obtaining max. number of non-zero basis functions in each batch (get_n_compute_maxes).
  | Maximal number of non-zero basis functions:      477 in task     0
  | Maximal number of non-zero basis functions:      475 in task     1
  | Maximal number of non-zero basis functions:      468 in task     2
  | Maximal number of non-zero basis functions:      479 in task     3
  | Maximal number of non-zero basis functions:      472 in task     4
  | Maximal number of non-zero basis functions:      478 in task     5
  | Maximal number of non-zero basis functions:      477 in task     6
  | Maximal number of non-zero basis functions:      479 in task     7
  | Maximal number of non-zero basis functions:      475 in task     8
  | Maximal number of non-zero basis functions:      477 in task     9
  | Maximal number of non-zero basis functions:      490 in task    10
  | Maximal number of non-zero basis functions:      489 in task    11
  | Maximal number of non-zero basis functions:      477 in task    12
  | Maximal number of non-zero basis functions:      472 in task    13
  | Maximal number of non-zero basis functions:      473 in task    14
  | Maximal number of non-zero basis functions:      490 in task    15
  | Maximal number of non-zero basis functions:      466 in task    16
  | Maximal number of non-zero basis functions:      479 in task    17
  | Maximal number of non-zero basis functions:      463 in task    18
  | Maximal number of non-zero basis functions:      477 in task    19
  Allocating        0.538 MB for KS_eigenvector_complex
  Integrating Hamiltonian matrix: batch-based integration.
  Time summed over all CPUs for integration: real work        2.511 s, elapsed        2.637 s
  Integrating overlap matrix.
  Time summed over all CPUs for integration: real work        1.626 s, elapsed        1.721 s
  Decreasing sparse matrix size:
   Tolerance:  9.999999824516700E-014
   Hamiltonian matrix
  | Array has    93098 nonzero elements out of   149573 elements
  | Sparsity factor is 0.378
   Overlap matrix
  | Array has    86812 nonzero elements out of   149573 elements
  | Sparsity factor is 0.420
  New size of hamiltonian matrix:       93853

  Updating Kohn-Sham eigenvalues and eigenvectors using ELSI and the ELPA eigensolver.
  Overlap matrix is nonsingular
  | Lowest eigenvalue of overlap  :  0.37E-02
  | Highest eigenvalue of overlap :  0.78E+01
  Finished singularity check of overlap matrix
  | Time :     0.002 s
  Finished Cholesky decomposition
  | Time :     0.000 s
  Finished transformation to standard eigenproblem
  | Time :     0.001 s
  Starting LAPACK eigensolver
  Finished solving standard eigenproblem
  | Time :     0.002 s
  Finished back-transformation of eigenvectors
  | Time :     0.000 s

  Obtaining occupation numbers and chemical potential using ELSI.
  | Chemical potential (Fermi level):    -9.08020875eV
  Writing Kohn-Sham eigenvalues.
  K-point:       1 at    0.000000    0.000000    0.000000 (in units of recip. lattice)

  State    Occupation    Eigenvalue [Ha]    Eigenvalue [eV]
      1       2.00000        -100.732969        -2741.08355
      2       2.00000        -100.732969        -2741.08355
      3       2.00000        -100.732969        -2741.08355
      4       2.00000        -100.732969        -2741.08355
      5       2.00000          -9.247449         -251.63590
      6       2.00000          -9.247449         -251.63590
      7       2.00000          -9.247449         -251.63590
      8       2.00000          -9.247449         -251.63590
      9       2.00000          -7.064047         -192.22250
     10       2.00000          -7.064047         -192.22250
     11       2.00000          -7.064047         -192.22250
     12       2.00000          -7.064047         -192.22250
     13       2.00000          -7.064047         -192.22250
     14       2.00000          -7.064047         -192.22250
     15       2.00000          -7.064047         -192.22250
     16       2.00000          -7.064047         -192.22250
     17       2.00000          -7.064047         -192.22250
     18       2.00000          -7.064047         -192.22250
     19       2.00000          -7.064047         -192.22250
     20       2.00000          -7.064047         -192.22250
     21       2.00000          -1.884344          -51.27560
     22       2.00000          -1.884166          -51.27076
     23       2.00000          -1.884166          -51.27076
     24       2.00000          -1.884166          -51.27076
     25       2.00000          -0.830276          -22.59297
     26       2.00000          -0.797998          -21.71462
     27       2.00000          -0.797998          -21.71462
     28       2.00000          -0.797998          -21.71462
     29       2.00000          -0.444475          -12.09478
     30       2.00000          -0.444475          -12.09478
     31       2.00000          -0.444475          -12.09478
     32       2.00000          -0.376648          -10.24910
     33       2.00000          -0.376648          -10.24910
     34       2.00000          -0.376648          -10.24910
     35       2.00000          -0.376648          -10.24910
     36       2.00000          -0.376648          -10.24910
     37       2.00000          -0.376648          -10.24910
     38       2.00000          -0.335400           -9.12670
     39       2.00000          -0.335400           -9.12670
     40       2.00000          -0.335400           -9.12670
     41       0.00000          -0.081329           -2.21307
     42       0.00000          -0.027873           -0.75847
     43       0.00000          -0.027873           -0.75847
     44       0.00000          -0.027873           -0.75847
     45       0.00000          -0.024379           -0.66340
     46       0.00000          -0.024379           -0.66340
     47       0.00000          -0.024379           -0.66340
     48       0.00000           0.112556            3.06282
     49       0.00000           0.112556            3.06282
     50       0.00000           0.112556            3.06282
     51       0.00000           0.149302            4.06271
     52       0.00000           0.149302            4.06271
     53       0.00000           0.149302            4.06271
     54       0.00000           0.209124            5.69057
     55       0.00000           0.209124            5.69057
     56       0.00000           0.219787            5.98070
     57       0.00000           0.219787            5.98070
     58       0.00000           0.219787            5.98070

  What follows are estimated values for band gap, HOMO, LUMO, etc.
  | They are estimated on a discrete k-point grid and not necessarily exact.
  | For converged numbers, create a DOS and/or band structure plot on a denser k-grid.

  Highest occupied state (VBM) at     -9.12669961 eV (relative to internal zero)
  | Occupation number:      2.00000000
  | K-point:       1 at    0.000000    0.000000    0.000000 (in units of recip. lattice)

  Lowest unoccupied state (CBM) at    -2.21306835 eV (relative to internal zero)
  | Occupation number:      0.00000000
  | K-point:       1 at    0.000000    0.000000    0.000000 (in units of recip. lattice)

  ESTIMATED overall HOMO-LUMO gap:      6.91363126 eV between HOMO at k-point 1 and LUMO at k-point 1
  | This appears to be a direct band gap.
  The gap value is above 0.2 eV. Unless you are using a very sparse k-point grid,
  this system is most likely an insulator or a semiconductor.
  Calculating total energy contributions from superposition of free atom densities.

  Total energy components:
  | Sum of eigenvalues            :       -1080.11328896 Ha      -29391.37800934 eV
  | XC energy correction          :        -119.86609753 Ha       -3261.72246834 eV
  | XC potential correction       :         154.91122510 Ha        4215.34890951 eV
  | Free-atom electrostatic energy:        -825.67136978 Ha      -22467.66111366 eV
  | Hartree energy correction     :           0.00000000 Ha           0.00000000 eV
  | Entropy correction            :          -0.00000000 Ha          -0.00000000 eV
  | ---------------------------
  | Total energy                  :       -1870.73953116 Ha      -50905.41268183 eV
  | Total energy, T -> 0          :       -1870.73953116 Ha      -50905.41268183 eV  <-- do not rely on this value for anything but (periodic) metals
  | Electronic free energy        :       -1870.73953116 Ha      -50905.41268183 eV

  Derived energy quantities:
  | Kinetic energy                :        1868.08407207 Ha       50833.15396344 eV
  | Electrostatic energy          :       -3618.95750571 Ha      -98476.84417693 eV
  | Energy correction for multipole
  | error in Hartree potential    :           0.00000000 Ha           0.00000000 eV
  | Sum of eigenvalues per atom                           :       -3673.92225117 eV
  | Total energy (T->0) per atom                          :       -6363.17658523 eV  <-- do not rely on this value for anything but (periodic) metals
  | Electronic free energy per atom                       :       -6363.17658523 eV
  Initialize hartree_potential_storage
  Max. number of atoms included in rho_multipole:            8

  End scf initialization - timings             :  max(cpu_time)    wall_clock(cpu1)
  | Time for scf. initialization               :        0.508 s           0.508 s
  | Boundary condition initialization          :        0.064 s           0.064 s
  | Integration                                :        0.230 s           0.230 s
  | Solution of K.-S. eqns.                    :        0.041 s           0.041 s
  | Grid partitioning                          :        0.033 s           0.033 s
  | Preloading free-atom quantities on grid    :        0.009 s           0.019 s
  | Free-atom superposition energy             :        0.017 s           0.017 s
  | Total energy evaluation                    :        0.000 s           0.000 s

  Partial memory accounting:
  | Current value for overall tracked memory usage on task 0  :           2.416 MB
  | Peak value for overall tracked memory usage on task 0     :           6.725 MB after allocating wave
  | Largest tracked array allocation on task 0 so far         :           1.820 MB  when allocating hamiltonian_shell
  Note:  These values currently only include a subset of arrays which are explicitly tracked.
  The "true" memory usage will be greater.
------------------------------------------------------------

------------------------------------------------------------
          Begin self-consistency iteration #    1

  Date     :  20220721, Time     :  125816.010
------------------------------------------------------------
  Evaluating new KS density using the density matrix
  Evaluating density matrix
  Time summed over all CPUs for getting density from density matrix: real work        4.054 s, elapsed        4.199 s
  Integration grid: deviation in total charge (<rho> - N_e) =  -1.932676E-12
  Pulay mixing of updated and previous charge densities.

  Evaluating partitioned Hartree potential by multipole expansion.
  | Analytical far-field extrapolation by fixed multipoles:
  | Hartree multipole sum: apparent total charge =   0.838461E-02
  Summing up the Hartree potential.
  | Estimated reciprocal-space cutoff momentum G_max:         2.61370636 bohr^-1 .
  | Reciprocal lattice points for long-range Hartree potential:     250
  Time summed over all CPUs for potential: real work        3.116 s, elapsed        3.174 s
  | RMS charge density error from multipole expansion :   0.545954E-03
  | Average real-space part of the electrostatic potential :      0.00345263 eV

  Integrating Hamiltonian matrix: batch-based integration.
  Time summed over all CPUs for integration: real work        2.451 s, elapsed        2.539 s

  Updating Kohn-Sham eigenvalues and eigenvectors using ELSI and the ELPA eigensolver.
  Finished Cholesky decomposition
  | Time :     0.000 s
  Finished transformation to standard eigenproblem
  | Time :     0.001 s
  Starting LAPACK eigensolver
  Finished solving standard eigenproblem
  | Time :     0.002 s
  Finished back-transformation of eigenvectors
  | Time :     0.000 s

  Obtaining occupation numbers and chemical potential using ELSI.
  | Chemical potential (Fermi level):    -9.05084232eV
  Writing Kohn-Sham eigenvalues.
  K-point:       1 at    0.000000    0.000000    0.000000 (in units of recip. lattice)

  State    Occupation    Eigenvalue [Ha]    Eigenvalue [eV]
      1       2.00000        -100.732567        -2741.07261
      2       2.00000        -100.732567        -2741.07261
      3       2.00000        -100.732567        -2741.07261
      4       2.00000        -100.732567        -2741.07261
      5       2.00000          -9.245946         -251.59500
      6       2.00000          -9.245946         -251.59500
      7       2.00000          -9.245946         -251.59500
      8       2.00000          -9.245946         -251.59500
      9       2.00000          -7.062588         -192.18280
     10       2.00000          -7.062588         -192.18280
     11       2.00000          -7.062588         -192.18280
     12       2.00000          -7.062588         -192.18280
     13       2.00000          -7.062588         -192.18280
     14       2.00000          -7.062588         -192.18280
     15       2.00000          -7.062588         -192.18280
     16       2.00000          -7.062588         -192.18280
     17       2.00000          -7.062588         -192.18280
     18       2.00000          -7.062588         -192.18280
     19       2.00000          -7.062588         -192.18280
     20       2.00000          -7.062588         -192.18280
     21       2.00000          -1.885581          -51.30927
     22       2.00000          -1.885403          -51.30443
     23       2.00000          -1.885403          -51.30443
     24       2.00000          -1.885403          -51.30443
     25       2.00000          -0.829143          -22.56212
     26       2.00000          -0.796766          -21.68111
     27       2.00000          -0.796766          -21.68111
     28       2.00000          -0.796766          -21.68111
     29       2.00000          -0.443654          -12.07244
     30       2.00000          -0.443654          -12.07244
     31       2.00000          -0.443654          -12.07244
     32       2.00000          -0.375684          -10.22287
     33       2.00000          -0.375684          -10.22287
     34       2.00000          -0.375684          -10.22287
     35       2.00000          -0.375684          -10.22287
     36       2.00000          -0.375684          -10.22287
     37       2.00000          -0.375684          -10.22287
     38       2.00000          -0.334322           -9.09737
     39       2.00000          -0.334322           -9.09737
     40       2.00000          -0.334322           -9.09737
     41       0.00000          -0.080764           -2.19769
     42       0.00000          -0.027538           -0.74934
     43       0.00000          -0.027538           -0.74934
     44       0.00000          -0.027538           -0.74934
     45       0.00000          -0.023844           -0.64883
     46       0.00000          -0.023844           -0.64883
     47       0.00000          -0.023844           -0.64883
     48       0.00000           0.113155            3.07909
     49       0.00000           0.113155            3.07909
     50       0.00000           0.113155            3.07909
     51       0.00000           0.150062            4.08340
     52       0.00000           0.150062            4.08340
     53       0.00000           0.150062            4.08340
     54       0.00000           0.209804            5.70907
     55       0.00000           0.209804            5.70907
     56       0.00000           0.220111            5.98952
     57       0.00000           0.220111            5.98952
     58       0.00000           0.220111            5.98952

  What follows are estimated values for band gap, HOMO, LUMO, etc.
  | They are estimated on a discrete k-point grid and not necessarily exact.
  | For converged numbers, create a DOS and/or band structure plot on a denser k-grid.

  Highest occupied state (VBM) at     -9.09737230 eV (relative to internal zero)
  | Occupation number:      2.00000000
  | K-point:       1 at    0.000000    0.000000    0.000000 (in units of recip. lattice)

  Lowest unoccupied state (CBM) at    -2.19769457 eV (relative to internal zero)
  | Occupation number:      0.00000000
  | K-point:       1 at    0.000000    0.000000    0.000000 (in units of recip. lattice)

  ESTIMATED overall HOMO-LUMO gap:      6.89967772 eV between HOMO at k-point 1 and LUMO at k-point 1
  | This appears to be a direct band gap.
  The gap value is above 0.2 eV. Unless you are using a very sparse k-point grid,
  this system is most likely an insulator or a semiconductor.

  Total energy components:
  | Sum of eigenvalues            :       -1080.04043955 Ha      -29389.39567618 eV
  | XC energy correction          :        -119.88116376 Ha       -3262.13244147 eV
  | XC potential correction       :         154.93042256 Ha        4215.87129911 eV
  | Free-atom electrostatic energy:        -825.67136978 Ha      -22467.66111366 eV
  | Hartree energy correction     :          -0.07604514 Ha          -2.06929344 eV
  | Entropy correction            :          -0.00000000 Ha          -0.00000000 eV
  | ---------------------------
  | Total energy                  :       -1870.73859567 Ha      -50905.38722564 eV
  | Total energy, T -> 0          :       -1870.73859567 Ha      -50905.38722564 eV  <-- do not rely on this value for anything but (periodic) metals
  | Electronic free energy        :       -1870.73859567 Ha      -50905.38722564 eV

  Derived energy quantities:
  | Kinetic energy                :        1867.93299510 Ha       50829.04294988 eV
  | Electrostatic energy          :       -3618.79042700 Ha      -98472.29773405 eV
  | Energy correction for multipole
  | error in Hartree potential    :           0.00042046 Ha           0.01144132 eV
  | Sum of eigenvalues per atom                           :       -3673.67445952 eV
  | Total energy (T->0) per atom                          :       -6363.17340320 eV  <-- do not rely on this value for anything but (periodic) metals
  | Electronic free energy per atom                       :       -6363.17340320 eV

  Self-consistency convergence accuracy:
  | Change of charge density      :  0.1202E+00
  | Change of sum of eigenvalues  :  0.1982E+01 eV
  | Change of total energy        :  0.2546E-01 eV

  End self-consistency iteration #     1       :  max(cpu_time)    wall_clock(cpu1)
  | Time for this iteration                    :        0.647 s           0.647 s
  | Charge density update                      :        0.216 s           0.216 s
  | Density mixing & preconditioning           :        0.105 s           0.105 s
  | Hartree multipole update                   :        0.001 s           0.001 s
  | Hartree multipole summation                :        0.162 s           0.163 s
  | Integration                                :        0.130 s           0.130 s
  | Solution of K.-S. eqns.                    :        0.031 s           0.031 s
  | Total energy evaluation                    :        0.000 s           0.000 s

  Partial memory accounting:
  | Current value for overall tracked memory usage on task 0  :           2.416 MB
  | Peak value for overall tracked memory usage on task 0     :           6.961 MB after allocating gradient_basis_wave
  | Largest tracked array allocation on task 0 so far         :           1.820 MB  when allocating hamiltonian_shell
  Note:  These values currently only include a subset of arrays which are explicitly tracked.
  The "true" memory usage will be greater.
------------------------------------------------------------

------------------------------------------------------------
          Begin self-consistency iteration #    2

  Date     :  20220721, Time     :  125816.663
------------------------------------------------------------
  Evaluating new KS density using the density matrix
  Evaluating density matrix
  Time summed over all CPUs for getting density from density matrix: real work        4.025 s, elapsed        4.512 s
  Integration grid: deviation in total charge (<rho> - N_e) =  -1.961098E-12
  Pulay mixing of updated and previous charge densities.

  Evaluating partitioned Hartree potential by multipole expansion.
  | Analytical far-field extrapolation by fixed multipoles:
  | Hartree multipole sum: apparent total charge =   0.195836E-01
  Summing up the Hartree potential.
  Time summed over all CPUs for potential: real work        3.456 s, elapsed        3.513 s
  | RMS charge density error from multipole expansion :   0.921923E-02
  | Average real-space part of the electrostatic potential :      0.19894281 eV

  Integrating Hamiltonian matrix: batch-based integration.
  Time summed over all CPUs for integration: real work        2.449 s, elapsed        2.535 s

  Updating Kohn-Sham eigenvalues and eigenvectors using ELSI and the ELPA eigensolver.
  Finished Cholesky decomposition
  | Time :     0.000 s
  Finished transformation to standard eigenproblem
  | Time :     0.001 s
  Starting LAPACK eigensolver
  Finished solving standard eigenproblem
  | Time :     0.002 s
  Finished back-transformation of eigenvectors
  | Time :     0.000 s

  Obtaining occupation numbers and chemical potential using ELSI.
  | Chemical potential (Fermi level):    -8.44156611eV
  What follows are estimated values for band gap, HOMO, LUMO, etc.
  | They are estimated on a discrete k-point grid and not necessarily exact.
  | For converged numbers, create a DOS and/or band structure plot on a denser k-grid.

  Highest occupied state (VBM) at     -8.48844215 eV (relative to internal zero)
  | Occupation number:      2.00000000
  | K-point:      19 at    0.000000    0.833333    0.166667 (in units of recip. lattice)

  Lowest unoccupied state (CBM) at    -1.88697504 eV (relative to internal zero)
  | Occupation number:      0.00000000
  | K-point:       1 at    0.000000    0.000000    0.000000 (in units of recip. lattice)

  ESTIMATED overall HOMO-LUMO gap:      6.60146711 eV between HOMO at k-point 19 and LUMO at k-point 1
  | This appears to be an indirect band gap.
  | Smallest direct gap :      6.60311555 eV for k_point 1 at    0.000000    0.000000    0.000000 (in units of recip. lattice)
  The gap value is above 0.2 eV. Unless you are using a very sparse k-point grid,
  this system is most likely an insulator or a semiconductor.

  Checking to see if s.c.f. parameters should be adjusted.
  The system likely has a gap. Increased the default Pulay mixing parameter (charge_mix_param). Value:   0.200000 .
  Kept the default occupation width. Value:   0.010000 eV.

  Total energy components:
  | Sum of eigenvalues            :       -1077.22705615 Ha      -29312.83961884 eV
  | XC energy correction          :        -120.12668767 Ha       -3268.81348685 eV
  | XC potential correction       :         155.24257432 Ha        4224.36538050 eV
  | Free-atom electrostatic energy:        -825.67136978 Ha      -22467.66111366 eV
  | Hartree energy correction     :          -2.94743678 Ha         -80.20383538 eV
  | Entropy correction            :          -0.00000000 Ha          -0.00000000 eV
  | ---------------------------
  | Total energy                  :       -1870.72997606 Ha      -50905.15267423 eV
  | Total energy, T -> 0          :       -1870.72997606 Ha      -50905.15267423 eV  <-- do not rely on this value for anything but (periodic) metals
  | Electronic free energy        :       -1870.72997606 Ha      -50905.15267423 eV

  Derived energy quantities:
  | Kinetic energy                :        1869.74218241 Ha       50878.27344144 eV
  | Electrostatic energy          :       -3620.34547080 Ha      -98514.61262882 eV
  | Energy correction for multipole
  | error in Hartree potential    :           0.00701688 Ha           0.19093892 eV
  | Sum of eigenvalues per atom                           :       -3664.10495235 eV
  | Total energy (T->0) per atom                          :       -6363.14408428 eV  <-- do not rely on this value for anything but (periodic) metals
  | Electronic free energy per atom                       :       -6363.14408428 eV

  Self-consistency convergence accuracy:
  | Change of charge density      :  0.1134E+00
  | Change of sum of eigenvalues  :  0.7656E+02 eV
  | Change of total energy        :  0.2346E+00 eV

  End self-consistency iteration #     2       :  max(cpu_time)    wall_clock(cpu1)
  | Time for this iteration                    :        0.696 s           0.693 s
  | Charge density update                      :        0.251 s           0.248 s
  | Density mixing & preconditioning           :        0.104 s           0.104 s
  | Hartree multipole update                   :        0.001 s           0.001 s
  | Hartree multipole summation                :        0.178 s           0.179 s
  | Integration                                :        0.129 s           0.129 s
  | Solution of K.-S. eqns.                    :        0.031 s           0.032 s
  | Total energy evaluation                    :        0.000 s           0.000 s

  Partial memory accounting:
  | Current value for overall tracked memory usage on task 0  :           2.417 MB
  | Peak value for overall tracked memory usage on task 0     :           6.961 MB after allocating gradient_basis_wave
  | Largest tracked array allocation on task 0 so far         :           1.820 MB  when allocating hamiltonian_shell
  Note:  These values currently only include a subset of arrays which are explicitly tracked.
  The "true" memory usage will be greater.
------------------------------------------------------------

------------------------------------------------------------
          Begin self-consistency iteration #    3

  Date     :  20220721, Time     :  125817.356
------------------------------------------------------------
  Evaluating new KS density using the density matrix
  Evaluating density matrix
  Time summed over all CPUs for getting density from density matrix: real work        4.027 s, elapsed        4.157 s
  Integration grid: deviation in total charge (<rho> - N_e) =  -1.975309E-12
  Pulay mixing of updated and previous charge densities.

  Evaluating partitioned Hartree potential by multipole expansion.
  | Analytical far-field extrapolation by fixed multipoles:
  | Hartree multipole sum: apparent total charge =   0.211526E-01
  Summing up the Hartree potential.
  Time summed over all CPUs for potential: real work        3.498 s, elapsed        3.555 s
  | RMS charge density error from multipole expansion :   0.113122E-01
  | Average real-space part of the electrostatic potential :      0.25147659 eV

  Integrating Hamiltonian matrix: batch-based integration.
  Time summed over all CPUs for integration: real work        2.474 s, elapsed        2.555 s

  Updating Kohn-Sham eigenvalues and eigenvectors using ELSI and the ELPA eigensolver.
  Finished Cholesky decomposition
  | Time :     0.000 s
  Finished transformation to standard eigenproblem
  | Time :     0.001 s
  Starting LAPACK eigensolver
  Finished solving standard eigenproblem
  | Time :     0.002 s
  Finished back-transformation of eigenvectors
  | Time :     0.000 s

  Obtaining occupation numbers and chemical potential using ELSI.
  | Chemical potential (Fermi level):    -8.27442746eV
  What follows are estimated values for band gap, HOMO, LUMO, etc.
  | They are estimated on a discrete k-point grid and not necessarily exact.
  | For converged numbers, create a DOS and/or band structure plot on a denser k-grid.

  Highest occupied state (VBM) at     -8.32126263 eV (relative to internal zero)
  | Occupation number:      2.00000000
  | K-point:      19 at    0.000000    0.833333    0.166667 (in units of recip. lattice)

  Lowest unoccupied state (CBM) at    -1.79456222 eV (relative to internal zero)
  | Occupation number:      0.00000000
  | K-point:       1 at    0.000000    0.000000    0.000000 (in units of recip. lattice)

  ESTIMATED overall HOMO-LUMO gap:      6.52670042 eV between HOMO at k-point 19 and LUMO at k-point 1
  | This appears to be an indirect band gap.
  | Smallest direct gap :      6.52907560 eV for k_point 1 at    0.000000    0.000000    0.000000 (in units of recip. lattice)
  The gap value is above 0.2 eV. Unless you are using a very sparse k-point grid,
[...]
  | Sum of eigenvalues per atom                           :       -3666.59754249 eV
  | Total energy (T->0) per atom                          :       -6363.14430400 eV  <-- do not rely on this value for anything but (periodic) metals
  | Electronic free energy per atom                       :       -6363.14430400 eV

  atomic forces [eV/Ang]:
  -----------------------
  atom #    1
   Hellmann-Feynman              : -0.681044E-07 -0.804351E-07  0.101840E-06
   Ionic forces                  :  0.000000E+00  0.000000E+00  0.000000E+00
   Multipole                     :  0.378639E-09  0.449474E-09 -0.576432E-09
   Pulay + GGA                   :  0.000000E+00  0.000000E+00  0.000000E+00
   ----------------------------------------------------------------
   Total forces(   1)            : -0.677258E-07 -0.799856E-07  0.101264E-06
  atom #    2
   Hellmann-Feynman              : -0.681069E-07  0.804396E-07 -0.101835E-06
   Ionic forces                  :  0.000000E+00  0.000000E+00  0.000000E+00
   Multipole                     :  0.378654E-09 -0.449476E-09  0.576426E-09
   Pulay + GGA                   :  0.000000E+00  0.000000E+00  0.000000E+00
   ----------------------------------------------------------------
   Total forces(   2)            : -0.677283E-07  0.799901E-07 -0.101259E-06
  atom #    3
   Hellmann-Feynman              :  0.681076E-07 -0.804361E-07 -0.101838E-06
   Ionic forces                  :  0.000000E+00  0.000000E+00  0.000000E+00
   Multipole                     : -0.378635E-09  0.449478E-09  0.576430E-09
   Pulay + GGA                   :  0.000000E+00  0.000000E+00  0.000000E+00
   ----------------------------------------------------------------
   Total forces(   3)            :  0.677290E-07 -0.799867E-07 -0.101261E-06
  atom #    4
   Hellmann-Feynman              :  0.681111E-07  0.804391E-07  0.101840E-06
   Ionic forces                  :  0.000000E+00  0.000000E+00  0.000000E+00
   Multipole                     : -0.378657E-09 -0.449477E-09 -0.576423E-09
   Pulay + GGA                   :  0.000000E+00  0.000000E+00  0.000000E+00
   ----------------------------------------------------------------
   Total forces(   4)            :  0.677324E-07  0.799897E-07  0.101264E-06
  atom #    5
   Hellmann-Feynman              :  0.465032E-06 -0.544865E-06  0.682823E-06
   Ionic forces                  :  0.000000E+00  0.000000E+00  0.000000E+00
   Multipole                     : -0.623885E-09  0.747380E-09 -0.964461E-09
   Pulay + GGA                   :  0.000000E+00  0.000000E+00  0.000000E+00
   ----------------------------------------------------------------
   Total forces(   5)            :  0.464408E-06 -0.544117E-06  0.681858E-06
  atom #    6
   Hellmann-Feynman              :  0.465045E-06  0.550301E-06 -0.677384E-06
   Ionic forces                  :  0.000000E+00  0.000000E+00  0.000000E+00
   Multipole                     : -0.624161E-09 -0.745124E-09  0.964135E-09
   Pulay + GGA                   :  0.000000E+00  0.000000E+00  0.000000E+00
   ----------------------------------------------------------------
   Total forces(   6)            :  0.464421E-06  0.549555E-06 -0.676419E-06
  atom #    7
   Hellmann-Feynman              : -0.459558E-06 -0.544853E-06 -0.677369E-06
   Ionic forces                  :  0.000000E+00  0.000000E+00  0.000000E+00
   Multipole                     :  0.623763E-09  0.745732E-09  0.964030E-09
   Pulay + GGA                   :  0.000000E+00  0.000000E+00  0.000000E+00
   ----------------------------------------------------------------
   Total forces(   7)            : -0.458934E-06 -0.544107E-06 -0.676405E-06
  atom #    8
   Hellmann-Feynman              : -0.459589E-06  0.550304E-06  0.682806E-06
   Ionic forces                  :  0.000000E+00  0.000000E+00  0.000000E+00
   Multipole                     :  0.624943E-09 -0.745128E-09 -0.964705E-09
   Pulay + GGA                   :  0.000000E+00  0.000000E+00  0.000000E+00
   ----------------------------------------------------------------
   Total forces(   8)            : -0.458964E-06  0.549559E-06  0.681841E-06


  Self-consistency convergence accuracy:
  | Change of charge density      :  0.1211E-06
  | Change of sum of eigenvalues  : -0.8284E-05 eV
  | Change of total energy        :  0.8662E-10 eV
  | Change of forces              :  0.7052E-06 eV/A

  Writing Kohn-Sham eigenvalues.
  K-point:       1 at    0.000000    0.000000    0.000000 (in units of recip. lattice)

  State    Occupation    Eigenvalue [Ha]    Eigenvalue [eV]
      1       2.00000        -100.686528        -2739.81984
      2       2.00000        -100.686528        -2739.81984
      3       2.00000        -100.686528        -2739.81984
      4       2.00000        -100.686528        -2739.81984
      5       2.00000          -9.206872         -250.53173
      6       2.00000          -9.206872         -250.53173
      7       2.00000          -9.206872         -250.53173
      8       2.00000          -9.206872         -250.53173
      9       2.00000          -7.022849         -191.10144
     10       2.00000          -7.022849         -191.10144
     11       2.00000          -7.022849         -191.10144
     12       2.00000          -7.022849         -191.10144
     13       2.00000          -7.022849         -191.10144
     14       2.00000          -7.022849         -191.10144
     15       2.00000          -7.022849         -191.10144
     16       2.00000          -7.022849         -191.10144
     17       2.00000          -7.022849         -191.10144
     18       2.00000          -7.022849         -191.10144
     19       2.00000          -7.022849         -191.10144
     20       2.00000          -7.022849         -191.10144
     21       2.00000          -1.911193          -52.00620
     22       2.00000          -1.911025          -52.00164
     23       2.00000          -1.911025          -52.00164
     24       2.00000          -1.911025          -52.00164
     25       2.00000          -0.806202          -21.93787
     26       2.00000          -0.771734          -20.99996
     27       2.00000          -0.771734          -20.99996
     28       2.00000          -0.771734          -20.99996
     29       2.00000          -0.427268          -11.62655
     30       2.00000          -0.427268          -11.62655
     31       2.00000          -0.427268          -11.62655
     32       2.00000          -0.356567           -9.70268
     33       2.00000          -0.356567           -9.70268
     34       2.00000          -0.356567           -9.70268
     35       2.00000          -0.356567           -9.70268
     36       2.00000          -0.356567           -9.70268
     37       2.00000          -0.356567           -9.70268
     38       2.00000          -0.312778           -8.51113
     39       2.00000          -0.312778           -8.51113
     40       2.00000          -0.312778           -8.51113
     41       0.00000          -0.067830           -1.84576
     42       0.00000          -0.020864           -0.56773
     43       0.00000          -0.020864           -0.56773
     44       0.00000          -0.020864           -0.56773
     45       0.00000          -0.012341           -0.33581
     46       0.00000          -0.012341           -0.33581
     47       0.00000          -0.012341           -0.33581
     48       0.00000           0.124890            3.39842
     49       0.00000           0.124890            3.39842
     50       0.00000           0.124890            3.39842
     51       0.00000           0.166940            4.54268
     52       0.00000           0.166940            4.54268
     53       0.00000           0.166940            4.54268
     54       0.00000           0.222154            6.04511
     55       0.00000           0.222154            6.04511
     56       0.00000           0.227202            6.18248
     57       0.00000           0.227202            6.18248
     58       0.00000           0.227202            6.18248

  What follows are estimated values for band gap, HOMO, LUMO, etc.
  | They are estimated on a discrete k-point grid and not necessarily exact.
  | For converged numbers, create a DOS and/or band structure plot on a denser k-grid.

  Highest occupied state (VBM) at     -8.50951970 eV (relative to internal zero)
  | Occupation number:      2.00000000
  | K-point:      19 at    0.000000    0.833333    0.166667 (in units of recip. lattice)

  Lowest unoccupied state (CBM) at    -1.84575824 eV (relative to internal zero)
  | Occupation number:      0.00000000
  | K-point:       1 at    0.000000    0.000000    0.000000 (in units of recip. lattice)

  ESTIMATED overall HOMO-LUMO gap:      6.66376146 eV between HOMO at k-point 19 and LUMO at k-point 1
  | This appears to be an indirect band gap.
  | Smallest direct gap :      6.66537253 eV for k_point 1 at    0.000000    0.000000    0.000000 (in units of recip. lattice)
  The gap value is above 0.2 eV. Unless you are using a very sparse k-point grid,
  this system is most likely an insulator or a semiconductor.

  Self-consistency cycle converged.

  End self-consistency iteration #    16       :  max(cpu_time)    wall_clock(cpu1)
  | Time for this iteration                    :        0.928 s           0.929 s
  | Charge density & force component update    :        0.225 s           0.225 s
  | Density mixing                             :        0.001 s           0.001 s
  | Hartree multipole update                   :        0.001 s           0.002 s
  | Hartree multipole summation                :        0.535 s           0.535 s
  | Integration                                :        0.130 s           0.130 s
  | Solution of K.-S. eqns.                    :        0.033 s           0.033 s
  | Total energy evaluation                    :        0.001 s           0.001 s

  Partial memory accounting:
  | Current value for overall tracked memory usage on task 0  :           2.417 MB
  | Peak value for overall tracked memory usage on task 0     :           6.962 MB after allocating gradient_basis_wave
  | Largest tracked array allocation on task 0 so far         :           1.820 MB  when allocating hamiltonian_shell
  Note:  These values currently only include a subset of arrays which are explicitly tracked.
  The "true" memory usage will be greater.
------------------------------------------------------------
  |------------------------------------------
  | Final ELSI Output
  |------------------------------------------
  | Number of basis functions :          116
  | Number of electrons       :         80.0
  | Number of states          :           58
  | Solver                    :         ELPA
  | Parallel mode             :  SINGLE_PROC
  | Matrix format             :  BLACS_DENSE
  |------------------------------------------
  | ELSI Project (c)  elsi-interchange.org
  |------------------------------------------
  Removing unitary transformations (pure translations, rotations) from forces on atoms.
  Atomic forces before filtering:
  | Net force on center of mass :   0.109383E-07  0.108972E-07  0.108822E-07 eV/A
  Atomic forces after filtering:
  | Net force on center of mass :   0.000000E+00  0.850707E-22 -0.170141E-21 eV/A

  Energy and forces in a compact form:
  | Total energy uncorrected      :         -0.509051544319689E+05 eV
  | Total energy corrected        :         -0.509051544319689E+05 eV  <-- do not rely on this value for anything but (periodic) metals
  | Electronic free energy        :         -0.509051544319689E+05 eV
  Total atomic forces (unitary forces cleaned) [eV/Ang]:
  |   1         -0.690930541111775E-07         -0.813477683660617E-07          0.999033620237523E-07
  |   2         -0.690955443099456E-07          0.786279365262850E-07         -0.102619128544832E-06
  |   3          0.663616824174051E-07         -0.813488046943982E-07         -0.102621531639697E-06
  |   4          0.663651242719273E-07          0.786275097311693E-07          0.999037848578545E-07
  |   5          0.463040433027437E-06         -0.545479531391682E-06          0.680497919593899E-06
  |   6          0.463053764675754E-06          0.548193247077286E-06         -0.677779713935443E-06
  |   7         -0.460301374958767E-06         -0.545469109932880E-06         -0.677765316023469E-06
  |   8         -0.460331031012633E-06          0.548196521050282E-06          0.680480623667934E-06

  ------------------------------------ 
  Start decomposition of the XC Energy 
  ------------------------------------ 
  X and C from original XC functional choice 
  Hartree-Fock Energy :          0.000000000 Ha              0.000000000 eV
  X Energy            :       -117.072406930 Ha          -3185.702279308 eV
  C Energy            :         -3.001185198 Ha            -81.666404387 eV
  Total XC Energy     :       -120.073592128 Ha          -3267.368683695 eV
  ------------------------------------ 
  LDA X and C from self-consistent density 
  X Energy LDA        :       -108.415481809 Ha          -2950.135361252 eV
  C Energy LDA        :         -6.061340407 Ha           -164.937464405 eV
  ------------------------------------ 
  End decomposition of the XC Energy 
  ------------------------------------ 

------------------------------------------------------------

------------------------------------------------------------------------------
  Final output of selected total energy values:

  The following output summarizes some interesting total energy values
  at the end of a run (AFTER all relaxation, molecular dynamics, etc.).

  | Total energy of the DFT / Hartree-Fock s.c.f. calculation      :         -50905.154431969 eV
  | Final zero-broadening corrected energy (caution - metals only) :         -50905.154431969 eV
  | For reference only, the value of 1 Hartree used in FHI-aims is :             27.211384500 eV

  Before relying on these values, please be sure to understand exactly which
  total energy value is referred to by a given number. Different objects may
  all carry the same name 'total energy'. Definitions:

  Total energy of the DFT / Hartree-Fock s.c.f. calculation:
  | Note that this energy does not include ANY quantities calculated after the
  | s.c.f. cycle, in particular not ANY RPA, MP2, etc. many-body perturbation terms.

  Final zero-broadening corrected energy:
  | For metallic systems only, a broadening of the occupation numbers at the Fermi
  | level can be extrapolated back to zero broadening by an electron-gas inspired
  | formula. For all systems that are not real metals, this value can be
  | meaningless and should be avoided.

------------------------------------------------------------------------------
  Methods described in the following list of references were used in this FHI-aims run.
  If you publish the results, please make sure to cite these reference if they apply.
  FHI-aims is an academic code, and for our developers (often, Ph.D. students
  and postdocs), scientific credit in the community is essential.
  Thank you for helping us!

  For any use of FHI-aims, please cite:

    Volker Blum, Ralf Gehrke, Felix Hanke, Paula Havu, Ville Havu,
    Xinguo Ren, Karsten Reuter, and Matthias Scheffler
    'Ab initio molecular simulations with numeric atom-centered orbitals'
    Computer Physics Communications 180, 2175-2196 (2009)
    http://dx.doi.org/10.1016/j.cpc.2009.06.022


  The provided symmetry information was generated with SPGlib:

    Atsushi Togo, Yusuke Seto, Dimitar Pashov
    SPGlib 1.7.3 obtained from http://spglib.sourceforge.net
    Copyright (C) 2008 Atsushi Togo


  The scalable eigensolver library ELPA was used in your run.
  ELPA is essential especially for large systems on hundreds or thousands of CPUs.
  For ELPA, please cite:

    Andreas Marek, Volker Blum, Rainer Johanni, Ville Havu, Bruno Lang,
    Thomas Auckenthaler, Alexander Heinecke, Hans-Joachim Bungartz, and Hermann Lederer,
    'The ELPA Library - Scalable Parallel Eigenvalue Solutions
    for Electronic Structure Theory and Computational Science'
    The Journal of Physics: Condensed Matter 26, 213201 (2014).
    http://dx.doi.org/10.1088/0953-8984/26/21/213201


  The ELSI infrastructure was used in your run to solve the Kohn-Sham electronic structure.
  Please check out http://elsi-interchange.org to learn more.
  If scalability is important for your project, please acknowledge ELSI by citing:

    V. W-z. Yu, F. Corsetti, A. Garcia, W. P. Huhn, M. Jacquelin, W. Jia,
    B. Lange, L. Lin, J. Lu, W. Mi, A. Seifitokaldani, A. Vazquez-Mayagoitia,
    C. Yang, H. Yang, and V. Blum
    'ELSI: A unified software interface for Kohn-Sham electronic structure solvers'
    Computer Physics Communications 222, 267-285 (2018).
    http://dx.doi.org/10.1016/j.cpc.2017.09.007


  For the real-space grid partitioning and parallelization used in this calculation, please cite:

    Ville Havu, Volker Blum, Paula Havu, and Matthias Scheffler,
    'Efficient O(N) integration for all-electron electronic structure calculation'
    'using numerically tabulated basis functions'
    Journal of Computational Physics 228, 8367-8379 (2009).
    http://dx.doi.org/10.1016/j.jcp.2009.08.008

  Of course, there are many other important community references, e.g., those cited in the
  above references. Our list is limited to references that describe implementations in the
  FHI-aims code. The reason is purely practical (length of this list) - please credit others as well.

------------------------------------------------------------
          Leaving FHI-aims.
          Date     :  20220721, Time     :  125827.071

          Computational steps:
          | Number of self-consistency cycles          :           16
          | Number of SCF (re)initializations          :            1

          Detailed time accounting                     :  max(cpu_time)    wall_clock(cpu1)
          | Total time                                 :       12.158 s          12.167 s
          | Preparation time                           :        0.413 s           0.411 s
          | Boundary condition initalization           :        0.064 s           0.064 s
          | Grid partitioning                          :        0.033 s           0.033 s
          | Preloading free-atom quantities on grid    :        0.009 s           0.019 s
          | Free-atom superposition energy             :        0.017 s           0.017 s
          | Total time for integrations                :        2.309 s           2.306 s
          | Total time for solution of K.-S. equations :        0.552 s           0.557 s
          | Total time for density & force components  :        3.583 s           3.579 s
          | Total time for mixing & preconditioning    :        1.618 s           1.616 s
          | Total time for Hartree multipole update    :        0.021 s           0.023 s
          | Total time for Hartree multipole sum       :        3.216 s           3.217 s
          | Total time for total energy evaluation     :        0.005 s           0.005 s

          Partial memory accounting:
          | Residual value for overall tracked memory usage across tasks :           0.000 MB (should be 0.000 MB)
          | Peak values for overall tracked memory usage (after allocating gradient_basis_wave):
          |   Minimum:        6.777 MB (on task 19)
          |   Maximum:        7.244 MB (on task 11)
          |   Average:        7.022 MB
          | Largest tracked array allocation (hamiltonian_shell):
          |   Minimum:        1.715 MB (on task 19)
          |   Maximum:        1.921 MB (on task 11)
          |   Average:        1.818 MB
          Note:  These values currently only include a subset of arrays which are explicitly tracked.
          The "true" memory usage will be greater.

          Have a nice day.
------------------------------------------------------------
