  MPI-parallelism will be employed.
------------------------------------------------------------
          Invoking FHI-aims ...
          Version 171221_1
          Compiled on 2020/09/23 at 19:46:43 on host login.service.

          When using FHI-aims, please cite the following reference:

          Volker Blum, Ralf Gehrke, Felix Hanke, Paula Havu,
          Ville Havu, Xinguo Ren, Karsten Reuter, and Matthias Scheffler,
          'Ab Initio Molecular Simulations with Numeric Atom-Centered Orbitals',
          Computer Physics Communications 180, 2175-2196 (2009)

          For any questions about FHI-aims, please visit the aimsclub website
          with its forums and wiki. Contributions to both the forums and the
          wiki are warmly encouraged - they are for you, and everyone is welcome there.

------------------------------------------------------------



  Date     :  20220721, Time     :  124624.755
  Time zero on CPU 1             :   0.849150000000000E-01  s.
  Internal wall clock time zero  :           427639584.755  s.

  FHI-aims created a unique identifier for this run for later identification
  aims_uuid : DE81A52F-6269-49EA-A0B2-ECE8A8DD7780

  Using       20 parallel tasks.
  Task        0 on host node062 reporting.
  Task        1 on host node062 reporting.
  Task        2 on host node062 reporting.
  Task        3 on host node062 reporting.
  Task        4 on host node062 reporting.
  Task        5 on host node062 reporting.
  Task        6 on host node062 reporting.
  Task        7 on host node062 reporting.
  Task        8 on host node062 reporting.
  Task        9 on host node062 reporting.
  Task       10 on host node062 reporting.
  Task       11 on host node062 reporting.
  Task       12 on host node062 reporting.
  Task       13 on host node062 reporting.
  Task       14 on host node062 reporting.
  Task       15 on host node062 reporting.
  Task       16 on host node062 reporting.
  Task       17 on host node062 reporting.
  Task       18 on host node062 reporting.
  Task       19 on host node062 reporting.

  Performing system and environment tests:
  *** Environment variable OMP_NUM_THREADS is not set
  *** For performance reasons you might want to set it to 1
  | Maximum stacksize for task 0: unlimited
  | Maximum stacksize for task 1: unlimited
  | Maximum stacksize for task 2: unlimited
  | Maximum stacksize for task 3: unlimited
  | Maximum stacksize for task 4: unlimited
  | Maximum stacksize for task 5: unlimited
  | Maximum stacksize for task 6: unlimited
  | Maximum stacksize for task 7: unlimited
  | Maximum stacksize for task 8: unlimited
  | Maximum stacksize for task 9: unlimited
  | Maximum stacksize for task 10: unlimited
  | Maximum stacksize for task 11: unlimited
  | Maximum stacksize for task 12: unlimited
  | Maximum stacksize for task 13: unlimited
  | Maximum stacksize for task 14: unlimited
  | Maximum stacksize for task 15: unlimited
  | Maximum stacksize for task 16: unlimited
  | Maximum stacksize for task 17: unlimited
  | Maximum stacksize for task 18: unlimited
  | Maximum stacksize for task 19: unlimited
  | Current stacksize for task 0: unlimited
  | Current stacksize for task 1: unlimited
  | Current stacksize for task 2: unlimited
  | Current stacksize for task 3: unlimited
  | Current stacksize for task 4: unlimited
  | Current stacksize for task 5: unlimited
  | Current stacksize for task 6: unlimited
  | Current stacksize for task 7: unlimited
  | Current stacksize for task 8: unlimited
  | Current stacksize for task 9: unlimited
  | Current stacksize for task 10: unlimited
  | Current stacksize for task 11: unlimited
  | Current stacksize for task 12: unlimited
  | Current stacksize for task 13: unlimited
  | Current stacksize for task 14: unlimited
  | Current stacksize for task 15: unlimited
  | Current stacksize for task 16: unlimited
  | Current stacksize for task 17: unlimited
  | Current stacksize for task 18: unlimited
  | Current stacksize for task 19: unlimited
  | Checking for scalapack...
  | Testing pdtran()...
  | All pdtran() tests passed.

  Obtaining array dimensions for all initial allocations:
  
  -----------------------------------------------------------------------
  Parsing control.in (first pass over file, find array dimensions only).
  The contents of control.in will be repeated verbatim below
  unless switched off by setting 'verbatim_writeout .false.' .
  in the first line of control.in .
  -----------------------------------------------------------------------
  
  #===============================================================================
  # FHI-aims file: ./control.in
  # Created using the Atomic Simulation Environment (ASE)
  # Wed Mar 24 12:41:28 2021
  #===============================================================================
  xc                                 pbe
  sc_accuracy_etot                   1e-06
  sc_accuracy_eev                    0.001
  sc_accuracy_rho                    1e-06
  sc_accuracy_forces                 0.0001
  friction_temperature               300  # default 300
  
    k_grid                           6 6 6
  
  
  
  ################################################################################
  #
  #  FHI-aims code project
  #  VB, Fritz-Haber Institut, 2009
  #
  #  Suggested "light" defaults for Li atom (to be pasted into control.in file)
  #  Be sure to double-check any results obtained with these settings for post-processing,
  #  e.g., with the "tight" defaults and larger basis sets.
  #
  ################################################################################
    species        Li
  #     global species definitions
      nucleus             3
      mass                6.941
  #
      l_hartree           4
  #
      cut_pot             3.5  1.5  1.0
      basis_dep_cutoff    1e-4
  #
      radial_base         29 5.0
      radial_multiplier   1
      angular_grids       specified
        division   0.4484  110
        division   0.5659  194
        division   0.6315  302
  #      division   0.6662  434
  #      division   0.8186  590
  #      division   0.9037  770
  #      division   6.2760  974
  #      outer_grid   974
        outer_grid   302
  ################################################################################
  #
  #  Definition of "minimal" basis
  #
  ################################################################################
  #     valence basis states
      valence      2  s   1.
  #     ion occupancy
      ion_occ      1  s   2.
  ################################################################################
  #
  #  Suggested additional basis functions. For production calculations,
  #  uncomment them one after another (the most important basis functions are
  #  listed first).
  #
  #  Constructed for dimers: 1.80 A, 2.25 A, 2.75 A, 3.50 A, 4.50 A
  #
  ################################################################################
  #  "First tier" - improvements: -189.23 meV to -6.35 meV
       hydro 2 p 1.6
       hydro 2 s 2
       hydro 3 d 2.6
  #  "Second tier" - improvements: -4.69 meV to -0.41 meV
  #     hydro 3 p 4.6
  #     hydro 2 p 1.8
  #     hydro 3 s 6.2
  #     hydro 4 d 4.7
  #     hydro 4 f 4.1
  #  "Third tier" - improvements: -0.20 meV to -0.15 meV
  #     hydro 4 d 0.95
  #     hydro 3 p 6.2
  #     hydro 3 s 1.7
  #  Further functions, listed for completeness
  #     VB: The following functions are only listed for completeness; test very
  #         carefully before any kind of production use. From the point of view
  #         of the basis construction, their main role is to fill up space,
  #         and they are solely determined by the location of the cutoff potential.
  #     hydro 3 p 0.1  # -0.15 meV
  #     hydro 4 d 5    # -0.12 meV
  #     hydro 4 f 0.1  # -0.14 meV
  #     hydro 5 g 0.1  # -0.06 meV
  
  
  ################################################################################
  #
  #  FHI-aims code project
  #  VB, Fritz-Haber Institut, 2010
  #
  #  Suggested "light" defaults for P atom (to be pasted into control.in file)
  #  Be sure to double-check any results obtained with these settings for post-processing,
  #  e.g., with the "tight" defaults and larger basis sets.
  #
  ################################################################################
    species        P
  #     global species definitions
      nucleus             15
      mass                30.973762
  #
      l_hartree           4
  #
      cut_pot             3.5          1.5  1.0
      basis_dep_cutoff    1e-4
  #
      radial_base         43 5.0
      radial_multiplier   1
      angular_grids       specified
        division   0.5527   50
        division   0.8801  110
        division   1.1447  194
        division   1.3165  302
  #      division   1.4113  434
  #      division   1.4781  590
  #      division   1.5482  770
  #      division   1.5845  974
  #      division   2.2606 1202
        outer_grid  302
  ################################################################################
  #
  #  Definition of "minimal" basis
  #
  ################################################################################
  #     valence basis states
      valence      3  s   2.
      valence      3  p   3.
  #     ion occupancy
      ion_occ      3  s   1.
      ion_occ      3  p   2.
  ################################################################################
  #
  #  Suggested additional basis functions. For production calculations,
  #  uncomment them one after another (the most important basis functions are
  #  listed first).
  #
  #  Constructed for dimers: 1.625 A, 1.875 A, 2.5 A, 3.25 A, 4.0 A
  #
  ################################################################################
  #  "First tier" - improvements: -726.20 meV to -35.91 meV
       ionic 3 d auto
       ionic 3 p auto
  #     hydro 4 f 6.2
  #     hydro 5 g 8.6
       ionic 3 s auto
  #  "Second tier" - improvements: -16.02 meV to -1.71 meV
  #     hydro 4 d 6.2
  #     hydro 4 p 9.2
  #     hydro 5 f 9.8
  #     hydro 1 s 0.7
  #     hydro 5 g 13.2
  #  "Third tier" - improvements: -1.82 meV to -0.20 meV
  #     hydro 3 p 2.5
  #     hydro 4 d 6.4
  #     hydro 5 f 11.2
  #     hydro 2 s 1.5
  #  "Fourth tier" - improvements: -0.91 meV to -0.17 meV
  #     hydro 3 d 16.8
  #     hydro 5 g 18
  #     hydro 4 p 4.5
  #     hydro 3 s 2.1
  #  Further basis functions that fell out of the optimization - < -0.09 meV
  #     hydro 4 p 10.4
  #     hydro 4 d 17.6
  #     hydro 4 s 11.2
  ################################################################################
  #
  #  FHI-aims code project
  #  VB, Fritz-Haber Institut, 2009
  #
  #  Suggested "light" defaults for S atom (to be pasted into control.in file)
  #  Be sure to double-check any results obtained with these settings for post-processing,
  #  e.g., with the "tight" defaults and larger basis sets.
  #
  ################################################################################
    species        S
  #     global species definitions
      nucleus             16
      mass                32.065
  #
      l_hartree           4
  #
      cut_pot             3.5          1.5  1.0
      basis_dep_cutoff    1e-4
  #
      radial_base         44 5.0
      radial_multiplier   1
      angular_grids       specified
        division   0.4665  110
        division   0.5810  194
        division   0.7139  302
  #      division   0.8274  434
  #      division   0.9105  590
  #      division   1.0975  770
  #      division   1.2028  974
  #      outer_grid  974
        outer_grid  302
  ################################################################################
  #
  #  Definition of "minimal" basis
  #
  ################################################################################
  #     valence basis states
      valence      3  s   2.
      valence      3  p   4.
  #     ion occupancy
      ion_occ      3  s   1.
      ion_occ      3  p   3.
  ################################################################################
  #
  #  Suggested additional basis functions. For production calculations,
  #  uncomment them one after another (the most important basis functions are
  #  listed first).
  #
  #  Constructed for dimers: 1.6 A, 1.9 A, 2.5 A, 3.25 A, 4.0 A
  #
  ################################################################################
  #  "First tier" - improvements: -652.81 meV to -45.53 meV
       ionic 3 d auto
       hydro 2 p 1.8
  #     hydro 4 f 7
       ionic 3 s auto
  #  "Second tier" - improvements: -30.20 meV to -1.74 meV
  #     hydro 4 d 6.2
  #     hydro 5 g 10.8
  #     hydro 4 p 4.9
  #     hydro 5 f 10
  #     hydro 1 s 0.8
  #  "Third tier" - improvements: -1.04 meV to -0.20 meV
  #     hydro 3 d 3.9
  #     hydro 3 d 2.7
  #     hydro 5 g 12
  #     hydro 4 p 10.4
  #     hydro 5 f 12.4
  #     hydro 2 s 1.9
  #  "Fourth tier" - improvements: -0.35 meV to -0.06 meV
  #     hydro 4 d 10.4
  #     hydro 4 p 7.2
  #     hydro 4 d 10
  #     hydro 5 g 19.2
  #     hydro 4 s 12
  
  ################################################################################
  #
  #  FHI-aims code project
  #  VB, Fritz-Haber Institut, 2009
  #
  #  Suggested "light" defaults for Cl atom (to be pasted into control.in file)
  #  Be sure to double-check any results obtained with these settings for post-processing,
  #  e.g., with the "tight" defaults and larger basis sets.
  #
  ################################################################################
    species        Cl
  #     global species definitions
      nucleus             17
      mass                35.453
  #
      l_hartree           4
  #
      cut_pot             3.5          1.5  1.0
      basis_dep_cutoff    1e-4
  #
      radial_base         45 5.0
      radial_multiplier   1
      angular_grids       specified
        division   0.4412  110
        division   0.5489  194
        division   0.6734  302
  #      division   0.7794  434
  #      division   0.9402  590
  #      division   1.0779  770
  #      division   1.1792  974
  #      outer_grid  974
        outer_grid  302
  ################################################################################
  #
  #  Definition of "minimal" basis
  #
  ################################################################################
  #     valence basis states
      valence      3  s   2.
      valence      3  p   5.
  #     ion occupancy
      ion_occ      3  s   1.
      ion_occ      3  p   4.
  ################################################################################
  #
  #  Suggested additional basis functions. For production calculations,
  #  uncomment them one after another (the most important basis functions are
  #  listed first).
  #
  #  Constructed for dimers: 1.65 A, 2.0 A, 2.5 A, 3.25 A, 4.0 A
  #
  ################################################################################
  #  "First tier" - improvements: -429.57 meV to -15.03 meV
       ionic 3 d auto
       hydro 2 p 1.9
  #     hydro 4 f 7.4
       ionic 3 s auto
  #     hydro 5 g 10.4
  #  "Second tier" - improvements: -7.84 meV to -0.48 meV
  #     hydro 3 d 3.3
  #     hydro 5 f 9.8
  #     hydro 1 s 0.75
  #     hydro 5 g 11.2
  #     hydro 4 p 10.4
  #  "Third tier" - improvements: -1.00 meV to -0.12 meV
  #     hydro 4 d 12.8
  #     hydro 4 f 4.6
  #     hydro 4 d 10.8
  #     hydro 2 s 1.8
  #     hydro 3 p 3
  #  Further functions that fell out - improvements: -0.10 meV and below
  #     hydro 5 f 14.4
  #     hydro 4 s 12.8
  #     hydro 3 d 11.6
  #     hydro 4 s 4.1
  
  -----------------------------------------------------------------------
  Completed first pass over input file control.in .
  -----------------------------------------------------------------------
  
  
  -----------------------------------------------------------------------
  Parsing geometry.in (first pass over file, find array dimensions only).
  The contents of geometry.in will be repeated verbatim below
  unless switched off by setting 'verbatim_writeout .false.' .
  in the first line of geometry.in .
  -----------------------------------------------------------------------
  
  #=======================================================
  # FHI-aims file: /home/gz_fan/Documents/ML/train/battery/CCS/CCS/test/LiP/aims_geo/geometry.in.3
  # Created using the Atomic Simulation Environment (ASE)
  # Thu Jul 21 15:33:03 2022
  #=======================================================
  lattice_vector 3.7699137624000008 0.0000000000000000 0.0000000000000000
  lattice_vector -1.8849568811999995 3.2648410883149732 0.0000000000000000
  lattice_vector 0.0000000000000000 0.0000000000000000 6.7379390200000016
  atom 0.0000000000000000 0.0000000000000000 5.0534542650000009 Li
  atom 0.0000000000000000 0.0000000000000000 1.6844847550000004 Li
  atom 1.8849569000495701 1.0882803518888540 0.5667886924233800 Li
  atom -0.0000000188495684 2.1765607364261190 3.9357582024233810 Li
  atom -0.0000000188495684 2.1765607364261190 6.1711503275766209 Li
  atom 1.8849569000495701 1.0882803518888540 2.8021808175766205 Li
  atom 1.8849569000495701 1.0882803518888540 5.0534542650000009 P
  atom -0.0000000188495684 2.1765607364261190 1.6844847550000004 P
  
  -----------------------------------------------------------------------
  Completed first pass over input file geometry.in .
  -----------------------------------------------------------------------
  

  Basic array size parameters:
  | Number of species                 :        4
  | Number of atoms                   :        8
  | Number of lattice vectors         :        3
  | Max. basis fn. angular momentum   :        2
  | Max. atomic/ionic basis occupied n:        3
  | Max. number of basis fn. types    :        3
  | Max. radial fns per species/type  :        5
  | Max. logarithmic grid size        :     1362
  | Max. radial integration grid size :       45
  | Max. angular integration grid size:      302
  | Max. angular grid division number :        8
  | Radial grid for Hartree potential :     1362
  | Number of spin channels           :        1

------------------------------------------------------------
          Reading file control.in.
------------------------------------------------------------
  XC: Using PBE gradient-corrected functionals.
  Convergence accuracy of total energy:  0.1000E-05
  Convergence accuracy of sum of eigenvalues:  0.1000E-02
  Convergence accuracy of self-consistent charge density:  0.1000E-05
  Convergence accuracy of forces:  0.1000E-03
  Friction is calculated at temperature of   0.3000E+03 K
  Found k-point grid:         6         6         6
 
  Reading configuration options for species Li                  .
  | Found nuclear charge :   3.0000
  | Found atomic mass :    6.94100000000000      amu
  | Found l_max for Hartree potential  :   4
  | Found cutoff potl. onset [A], width [A], scale factor :    3.50000    1.50000    1.00000
  | Threshold for basis-dependent cutoff potential is   0.100000E-03
  | Found data for basic radial integration grid :    29 points, outermost radius =    5.000 A
  | Found multiplier for basic radial grid :   1
  | Found angular grid specification: user-specified.
  | Specified grid contains     4 separate shells.
  | Check grid settings after all constraints further below.
  | Found free-atom valence shell :  2 s   1.000
  | Found free-ion valence shell :  1 s   2.000
  | Found hydrogenic basis function :  2 p   1.600
  | Found hydrogenic basis function :  2 s   2.000
  | Found hydrogenic basis function :  3 d   2.600
  Species Li                  : Missing cutoff potential type.
  Defaulting to exp(1/x)/(1-x)^2 type cutoff potential.
  Species Li: No 'logarithmic' tag. Using default grid for free atom:
  | Default logarithmic grid data [bohr] : 0.1000E-03 0.1000E+03 0.1012E+01
  Species Li: On-site basis accuracy parameter (for Gram-Schmidt orthonormalisation) not specified.
  Using default value basis_acc =  0.1000000E-03.
  Species Li                  : Using default innermost maximum threshold i_radial=  2 for radial functions.
  Species Li                  : Default cutoff onset for free atom density etc. : 0.35000000E+01 AA.
  Species Li                  : Basic radial grid will be enhanced according to radial_multiplier =   1, to contain    29 grid points.
 
  Reading configuration options for species P                   .
  | Found nuclear charge :  15.0000
  | Found atomic mass :    30.9737620000000      amu
  | Found l_max for Hartree potential  :   4
  | Found cutoff potl. onset [A], width [A], scale factor :    3.50000    1.50000    1.00000
  | Threshold for basis-dependent cutoff potential is   0.100000E-03
  | Found data for basic radial integration grid :    43 points, outermost radius =    5.000 A
  | Found multiplier for basic radial grid :   1
  | Found angular grid specification: user-specified.
  | Specified grid contains     5 separate shells.
  | Check grid settings after all constraints further below.
  | Found free-atom valence shell :  3 s   2.000
  | Found free-atom valence shell :  3 p   3.000
  | Found free-ion valence shell :  3 s   1.000
  | Found free-ion valence shell :  3 p   2.000
  | Found ionic basis function :  3 d , default cutoff radius.
  | Found ionic basis function :  3 p , default cutoff radius.
  | Found ionic basis function :  3 s , default cutoff radius.
  Species P                   : Missing cutoff potential type.
  Defaulting to exp(1/x)/(1-x)^2 type cutoff potential.
  Species P : No 'logarithmic' tag. Using default grid for free atom:
  | Default logarithmic grid data [bohr] : 0.1000E-03 0.1000E+03 0.1012E+01
  | Will include ionic basis functions of  2.0-fold positive P                    ion.
  Species P : On-site basis accuracy parameter (for Gram-Schmidt orthonormalisation) not specified.
  Using default value basis_acc =  0.1000000E-03.
  Species P                   : Using default innermost maximum threshold i_radial=  2 for radial functions.
  Species P                   : Default cutoff onset for free atom density etc. : 0.35000000E+01 AA.
  Species P                   : Basic radial grid will be enhanced according to radial_multiplier =   1, to contain    43 grid points.
 
  Reading configuration options for species S                   .
  | Found nuclear charge :  16.0000
  | Found atomic mass :    32.0650000000000      amu
  | Found l_max for Hartree potential  :   4
  | Found cutoff potl. onset [A], width [A], scale factor :    3.50000    1.50000    1.00000
  | Threshold for basis-dependent cutoff potential is   0.100000E-03
  | Found data for basic radial integration grid :    44 points, outermost radius =    5.000 A
  | Found multiplier for basic radial grid :   1
  | Found angular grid specification: user-specified.
  | Specified grid contains     4 separate shells.
  | Check grid settings after all constraints further below.
  | Found free-atom valence shell :  3 s   2.000
  | Found free-atom valence shell :  3 p   4.000
  | Found free-ion valence shell :  3 s   1.000
  | Found free-ion valence shell :  3 p   3.000
  | Found ionic basis function :  3 d , default cutoff radius.
  | Found hydrogenic basis function :  2 p   1.800
  | Found ionic basis function :  3 s , default cutoff radius.
  Species S                   : Missing cutoff potential type.
  Defaulting to exp(1/x)/(1-x)^2 type cutoff potential.
  Species S : No 'logarithmic' tag. Using default grid for free atom:
  | Default logarithmic grid data [bohr] : 0.1000E-03 0.1000E+03 0.1012E+01
  | Will include ionic basis functions of  2.0-fold positive S                    ion.
  Species S : On-site basis accuracy parameter (for Gram-Schmidt orthonormalisation) not specified.
  Using default value basis_acc =  0.1000000E-03.
  Species S                   : Using default innermost maximum threshold i_radial=  2 for radial functions.
  Species S                   : Default cutoff onset for free atom density etc. : 0.35000000E+01 AA.
  Species S                   : Basic radial grid will be enhanced according to radial_multiplier =   1, to contain    44 grid points.
 
  Reading configuration options for species Cl                  .
  | Found nuclear charge :  17.0000
  | Found atomic mass :    35.4530000000000      amu
  | Found l_max for Hartree potential  :   4
  | Found cutoff potl. onset [A], width [A], scale factor :    3.50000    1.50000    1.00000
  | Threshold for basis-dependent cutoff potential is   0.100000E-03
  | Found data for basic radial integration grid :    45 points, outermost radius =    5.000 A
  | Found multiplier for basic radial grid :   1
  | Found angular grid specification: user-specified.
  | Specified grid contains     4 separate shells.
  | Check grid settings after all constraints further below.
  | Found free-atom valence shell :  3 s   2.000
  | Found free-atom valence shell :  3 p   5.000
  | Found free-ion valence shell :  3 s   1.000
  | Found free-ion valence shell :  3 p   4.000
  | Found ionic basis function :  3 d , default cutoff radius.
  | Found hydrogenic basis function :  2 p   1.900
  | Found ionic basis function :  3 s , default cutoff radius.
  Species Cl                  : Missing cutoff potential type.
  Defaulting to exp(1/x)/(1-x)^2 type cutoff potential.
  Species Cl: No 'logarithmic' tag. Using default grid for free atom:
  | Default logarithmic grid data [bohr] : 0.1000E-03 0.1000E+03 0.1012E+01
  | Will include ionic basis functions of  2.0-fold positive Cl                   ion.
  Species Cl: On-site basis accuracy parameter (for Gram-Schmidt orthonormalisation) not specified.
  Using default value basis_acc =  0.1000000E-03.
  Species Cl                  : Using default innermost maximum threshold i_radial=  2 for radial functions.
  Species Cl                  : Default cutoff onset for free atom density etc. : 0.35000000E+01 AA.
  Species Cl                  : Basic radial grid will be enhanced according to radial_multiplier =   1, to contain    45 grid points.
 
  Finished reading input file 'control.in'. Consistency checks are next.
 
  MPI_IN_PLACE appears to work with this MPI implementation.
  | Keeping use_mpi_in_place .true. (see manual).
  Target number of points in a grid batch is not set. Defaulting to  100
  Method for grid partitioning is not set. Defaulting to parallel hash+maxmin partitioning.
  Batch size limit is not set. Defaulting to    200
  By default, will store active basis functions for each batch.
  If in need of memory, prune_basis_once .false. can be used to disable this option.
  communication_type for Hartree potential was not specified.
  Defaulting to calc_hartree .
  Defaulting to Pulay charge density mixer.
  Pulay mixer: Number of relevant iterations not set.
  Defaulting to    8 iterations.
  Pulay mixer: Number of initial linear mixing iterations not set.
  Defaulting to    0 iterations.
  Work space size for distributed Hartree potential not set.
  Defaulting to   0.200000E+03 MB.
  Mixing parameter for charge density mixing has not been set.
  Using default: charge_mix_param =     0.0500.
  The mixing parameter will be adjusted in iteration number     2 of the first full s.c.f. cycle only.
  Algorithm-dependent basis array size parameters:
  | n_max_pulay                         :        8
  Maximum number of self-consistency iterations not provided.
  Presetting  1000 iterations.
  Presetting      1001 iterations before the initial mixing cycle
  is restarted anyway using the sc_init_iter criterion / keyword.
  Presetting a factor      1.000 between actual scf density residual
  and density convergence criterion sc_accuracy_rho below which sc_init_iter
  takes no effect.
  Geometry relaxation not requested: no relaxation will be performed.
  Handling of forces: Unphysical translation and rotation will be removed from forces.
  No accuracy limit for integral partition fn. given. Defaulting to  0.1000E-14.
  No threshold value for u(r) in integrations given. Defaulting to  0.1000E-05.
  No occupation type (smearing scheme) given. Defaulting to Gaussian broadening, width =  0.1000E-01 eV.
  The width will be adjusted in iteration number     2 of the first full s.c.f. cycle only.
  S.C.F. convergence parameters will be adjusted in iteration number     2 of the first full s.c.f. cycle only.
  No accuracy for occupation numbers given. Defaulting to  0.1000E-12.
  No threshold value for occupation numbers given. Defaulting to  0.0000E+00.
  No accuracy for fermi level given. Defaulting to  0.1000E-19.
  Maximum # of iterations to find E_F not set. Defaulting to  200.
  Preferred method for the eigenvalue solver ('KS_method') not specified in 'control.in'.
  Defaulting to serial version, 'lapack_fast', since more k-points than CPUs available.
  Will not use alltoall communication since running on < 1024 CPUs.
  Threshold for basis singularities not set.
  Default threshold for basis singularities:  0.1000E-04
  partition_type (choice of integration weights) for integrals was not specified.
  | Using a version of the partition function of Stratmann and coworkers ('stratmann_smoother').
  | At each grid point, the set of atoms used to build the partition table is smoothly restricted to
  | only those atoms whose free-atom density would be non-zero at that grid point.
  Partitioning for Hartree potential was not defined. Using partition_type for integrals.
  | Adjusted default value of keyword multip_moments_threshold to:       0.10000000E-11
  | This value may affect high angular momentum components of the Hartree potential in periodic systems.
  Spin handling was not defined in control.in. Defaulting to unpolarized case.
  Angular momentum expansion for Kerker preconditioner not set explicitly.
  | Using default value of   0
  No explicit requirement for turning off preconditioner.
  | By default, it will be turned off when the charge convergence reaches
  | sc_accuracy_rho  =   0.100000E-05
  | sc_accuracy_eev  =   0.100000E-02
  | sc_accuracy_etot =   0.100000E-05
  No special mixing parameter while Kerker preconditioner is on.
  Using default: charge_mix_param =     0.0500.
  No q(lm)/r^(l+1) cutoff set for long-range Hartree potential.
  | Using default value of  0.100000E-09 .
  | Verify using the multipole_threshold keyword.
  Defaulting to new monopole extrapolation.
  Density update method: automatic selection selected.
  Using density matrix based charge density update.
  Using density matrix based charge density update.
  Using packed matrix style: index .
  Defaulting to use time-reversal symmetry for k-point grid.
------------------------------------------------------------


------------------------------------------------------------
          Reading geometry description geometry.in.
------------------------------------------------------------
 * Warning! You did not set the 'relativistic' flag in input file 'control.in'.
 * Since you are not attempting to treat any elements beyond Ca(Z=20), FHI-aims
 * will default to 'relativistic none'.
 * You must ensure that this is really what you want!!
 * For example, DO NOT compute total-energy differences between results from
 * different settings of the 'relativistic' flag.
  Input structure read successfully.
  The structure contains        8 atoms,  and a total of         48.000 electrons.

  Input geometry:
  | Unit cell:
  |        3.76991376        0.00000000        0.00000000
  |       -1.88495688        3.26484109        0.00000000
  |        0.00000000        0.00000000        6.73793902
  | Atomic structure:
  |       Atom                x [A]            y [A]            z [A]
  |    1: Species Li            0.00000000        0.00000000        5.05345427
  |    2: Species Li            0.00000000        0.00000000        1.68448476
  |    3: Species Li            1.88495690        1.08828035        0.56678869
  |    4: Species Li           -0.00000002        2.17656074        3.93575820
  |    5: Species Li           -0.00000002        2.17656074        6.17115033
  |    6: Species Li            1.88495690        1.08828035        2.80218082
  |    7: Species P             1.88495690        1.08828035        5.05345427
  |    8: Species P            -0.00000002        2.17656074        1.68448476

  Lattice parameters for 3D lattice (in Angstroms) :     3.769914    3.769914    6.737939
  Angle(s) between unit vectors (in degrees)      :    90.000000   90.000000  120.000000

  |

  | The smallest distance between any two atoms is         2.17656070 AA.
  |
  | The first atom of this pair is atom number                      1 .
  | The second atom of this pair is atom number                     7 .
  | Wigner-Seitz cell of the first atom image           0     0     0 .
  | (The Wigner-Seitz cell of the second atom is 0 0 0  by definition.)

  Symmetry information by spglib:
  | Precision set to  0.1E-04
  | Number of Operations  : 24
  | Space group           : 194
  | International         : P6_3/mmc r
  | Schoenflies           : D6h^4

  Quantities derived from the lattice vectors:
  | Reciprocal lattice vector 1:  1.666666  0.962250  0.000000
  | Reciprocal lattice vector 2: -0.000000  1.924500  0.000000
  | Reciprocal lattice vector 3:  0.000000  0.000000  0.932508
  | Unit cell volume                               :   0.829317E+02  A^3

  Range separation radius for Ewald summation (hartree_convergence_parameter):      3.02013597 bohr.

  Fractional coordinates:
                         L1                L2                L3
       atom_frac         0.00000000        0.00000000        0.75000000  Li
       atom_frac         0.00000000        0.00000000        0.25000000  Li
       atom_frac         0.66666667        0.33333333        0.08411900  Li
       atom_frac         0.33333333        0.66666667        0.58411900  Li
       atom_frac         0.33333333        0.66666667        0.91588100  Li
       atom_frac         0.66666667        0.33333333        0.41588100  Li
       atom_frac         0.66666667        0.33333333        0.75000000  P
       atom_frac         0.33333333        0.66666667        0.25000000  P

  Number of empty states per atom not set in control.in - providing a guess from actual geometry.
  | Total number of empty states used during s.c.f. cycle:       15
  If you use a very high smearing, use empty_states (per atom!) in control.in to increase this value.

  Structure-dependent array size parameters: 
  | Maximum number of distinct radial functions  :       29
  | Maximum number of basis functions            :      102
  | Number of Kohn-Sham states (occupied + empty):       39
------------------------------------------------------------

------------------------------------------------------------
          Preparing all fixed parts of the calculation.
------------------------------------------------------------
  Determining machine precision:
    2.225073858507201E-308
  Setting up grids for atomic and cluster calculations.

  Creating wave function, potential, and density for free atoms.

  Species: Li

  List of occupied orbitals and eigenvalues:
    n    l              occ      energy [Ha]    energy [eV]
    1    0           2.0000        -1.876896       -51.0729
    2    0           1.0000        -0.084105        -2.2886


  Species: P

  List of occupied orbitals and eigenvalues:
    n    l              occ      energy [Ha]    energy [eV]
    1    0           2.0000       -76.351489     -2077.6297
    2    0           2.0000        -6.353717      -172.8934
    3    0           2.0000        -0.506059       -13.7706
    2    1           6.0000        -4.569386      -124.3393
    3    1           3.0000        -0.198107        -5.3908


  Species: S

  List of occupied orbitals and eigenvalues:
    n    l              occ      energy [Ha]    energy [eV]
    1    0           2.0000       -88.105825     -2397.4815
    2    0           2.0000        -7.730144      -210.3479
    3    0           2.0000        -0.627748       -17.0819
    2    1           6.0000        -5.747971      -156.4103
    3    1           4.0000        -0.255786        -6.9603


  Species: Cl

  List of occupied orbitals and eigenvalues:
    n    l              occ      energy [Ha]    energy [eV]
    1    0           2.0000      -100.709620     -2740.4482
    2    0           2.0000        -9.221874      -250.9399
    3    0           2.0000        -0.753366       -20.5001
    2    1           6.0000        -7.038743      -191.5339
    3    1           5.0000        -0.315359        -8.5813

  Creating fixed part of basis set: Ionic, confined, hydrogenic.
 
  Li                   hydrogenic:
 
  List of hydrogenic basis orbitals: 
    n    l      effective z      eigenvalue [eV]  inner max. [A]     outer max. [A]     outer radius [A]   
    2    1         1.600000        -8.6069           1.303334           1.303334           4.591005
    2    0         2.000000       -13.5631           0.203259           1.385485           4.591005
    3    2         2.600000        -9.9241           1.769240           1.769240           4.591005
 
 
  P                    ion:

  List of free ionic orbitals and eigenvalues:
    n    l      energy [Ha]    energy [eV]
    1    0       -77.297133     -2103.3620
    2    0        -7.273914      -197.9333
    3    0        -1.267536       -34.4914
    2    1        -5.491316      -149.4263
    3    1        -0.913470       -24.8568


  List of ionic basis orbitals and eigenvalues:
    n    l      energy [Ha]    energy [eV]    outer radius [A]
    3    2        -0.457308       -12.4440       4.554583
    3    1        -0.913443       -24.8560       4.337222
    3    0        -1.267519       -34.4910       3.885335

 
  S                    ion:

  List of free ionic orbitals and eigenvalues:
    n    l      energy [Ha]    energy [eV]
    1    0       -89.127201     -2425.2745
    2    0        -8.724378      -237.4024
    3    0        -1.464668       -39.8556
    2    1        -6.744348      -183.5230
    3    1        -1.048520       -28.5317


  List of ionic basis orbitals and eigenvalues:
    n    l      energy [Ha]    energy [eV]    outer radius [A]
    3    2        -0.496135       -13.5005       4.539062
    3    0        -1.464653       -39.8552       3.642502

 
  S                    hydrogenic:
 
  List of hydrogenic basis orbitals: 
    n    l      effective z      eigenvalue [eV]  inner max. [A]     outer max. [A]     outer radius [A]   
    2    1         1.800000       -10.9749           1.168531           1.168531           4.594893
 
 
  Cl                   ion:

  List of free ionic orbitals and eigenvalues:
    n    l      energy [Ha]    energy [eV]
    1    0      -101.807232     -2770.3157
    2    0       -10.290876      -280.0290
    3    0        -1.664625       -45.2967
    2    1        -8.110237      -220.6908
    3    1        -1.183915       -32.2160


  List of ionic basis orbitals and eigenvalues:
    n    l      energy [Ha]    energy [eV]    outer radius [A]
    3    2        -0.529186       -14.3999       4.541334
    3    0        -1.664610       -45.2963       3.428237

 
  Cl                   hydrogenic:
 
  List of hydrogenic basis orbitals: 
    n    l      effective z      eigenvalue [eV]  inner max. [A]     outer max. [A]     outer radius [A]   
    2    1         1.900000       -12.2492           1.113321           1.113321           4.597192
 

  Adding cutoff potential to free-atom effective potential.
  Creating atomic-like basis functions for current effective potential.

  Species Li                  :

  List of atomic basis orbitals and eigenvalues:
    n    l      energy [Ha]    energy [eV]    outer radius [A]
    1    0        -1.876896       -51.0729       4.062706
    2    0        -0.084105        -2.2886       4.591005


  Species P                   :

  List of atomic basis orbitals and eigenvalues:
    n    l      energy [Ha]    energy [eV]    outer radius [A]
    1    0       -76.351489     -2077.6297       0.736837
    2    0        -6.353717      -172.8934       2.532824
    3    0        -0.506059       -13.7706       4.499242
    2    1        -4.569386      -124.3393       2.862183
    3    1        -0.198107        -5.3908       4.554583


  Species S                   :

  List of atomic basis orbitals and eigenvalues:
    n    l      energy [Ha]    energy [eV]    outer radius [A]
    1    0       -88.105825     -2397.4815       0.682391
    2    0        -7.730144      -210.3479       2.317169
    3    0        -0.627748       -17.0819       4.483910
    2    1        -5.747971      -156.4103       2.555240
    3    1        -0.255786        -6.9603       4.539062


  Species Cl                  :

  List of atomic basis orbitals and eigenvalues:
    n    l      energy [Ha]    energy [eV]    outer radius [A]
    1    0      -100.709620     -2740.4482       0.642251
    2    0        -9.221874      -250.9399       2.128190
    3    0        -0.753366       -20.5001       4.431645
    2    1        -7.038743      -191.5339       2.346844
    3    1        -0.315359        -8.5813       4.541334

  Assembling full basis from fixed parts.
  | Species Li :   atomic orbital   1 s accepted.
  | Species Li :   atomic orbital   2 s accepted.
  | Species Li :    hydro orbital   2 s accepted.
  | Species Li :    hydro orbital   2 p accepted.
  | Species Li :    hydro orbital   3 d accepted.
  | Species P :   atomic orbital   1 s accepted.
  | Species P :   atomic orbital   2 s accepted.
  | Species P :    ionic orbital   3 s accepted.
  | Species P :   atomic orbital   3 s accepted.
  | Species P :   atomic orbital   2 p accepted.
  | Species P :    ionic orbital   3 p accepted.
  | Species P :   atomic orbital   3 p accepted.
  | Species P :    ionic orbital   3 d accepted.
  | Species S :   atomic orbital   1 s accepted.
  | Species S :   atomic orbital   2 s accepted.
  | Species S :    ionic orbital   3 s accepted.
  | Species S :   atomic orbital   3 s accepted.
  | Species S :   atomic orbital   2 p accepted.
  | Species S :   atomic orbital   3 p accepted.
  | Species S :    hydro orbital   2 p accepted.
  | Species S :    ionic orbital   3 d accepted.
  | Species Cl :   atomic orbital   1 s accepted.
  | Species Cl :   atomic orbital   2 s accepted.
  | Species Cl :    ionic orbital   3 s accepted.
  | Species Cl :   atomic orbital   3 s accepted.
  | Species Cl :   atomic orbital   2 p accepted.
  | Species Cl :   atomic orbital   3 p accepted.
  | Species Cl :    hydro orbital   2 p accepted.
  | Species Cl :    ionic orbital   3 d accepted.
 
  Basis size parameters after reduction:
  | Total number of radial functions:       29
  | Total number of basis functions :      102
 
  Per-task memory consumption for arrays in subroutine allocate_ext:
  |           7.588368MB.
  Testing on-site integration grid accuracy.
  |  Species  Function  <phi|h_atom|phi> (log., in eV)  <phi|h_atom|phi> (rad., in eV)
           1        1                -51.0729407432                -51.0729328795
           1        2                 -2.3261068990                 -2.3227046518
           1        3                 17.1966930198                 17.2358027191 ***
           1        4                  0.3867256281                  0.3982841734
           1        5                  6.2743141416                  6.2817896417
           2        6              -2077.6297159538              -2077.6288551184
           2        7               -172.8934457906               -172.8934403880
           2        8                -13.4653967551                -13.4655200798
           2        9                  6.4162845277                  6.4013396720
           2       10               -124.3393201040               -124.3393200061
           2       11                 -4.7560266034                 -4.7560495157
           2       12                  6.5873401476                  6.4958904717 ***
           2       13                  5.2911719464                  5.2826493609
           3       14              -2397.4814915323              -2397.4804563634
           3       15               -210.3479335736               -210.3479265952
           3       16                -16.8079362322                -16.8079092816
           3       17                  7.5772439785                  7.5675998324
           3       18               -156.4102581151               -156.4102580951
           3       19                 -6.9617737483                 -6.9640288036
           3       20                  7.5696988470                  7.5151244831 ***
           3       21                  6.0973034823                  6.0928113248
           4       22              -2740.4481953768              -2740.4469735573
           4       23               -250.9399497423               -250.9399403187
           4       24                -20.2462734235                -20.2462512680
           4       25                  8.9460051782                  8.9510436705
           4       26               -191.5339459398               -191.5339455009
           4       27                 -8.5819075957                 -8.5827488985
           4       28                  8.1339828089                  8.0979459360 ***
           4       29                  7.0302175114                  7.0277664253
 * Note: Onsite integrals marked "***" above are less accurate than
 * onsite_accuracy_threshold =    0.03000 eV. Usually, this is harmless.
 * When in doubt, tighten the "radial" and/or "radial_multiplier" flags to check.

  Preparing densities etc. for the partition functions (integrals / Hartree potential).

  Preparations completed.
  max(cpu_time)          :      0.413 s.
  Wall clock time (cpu1) :      0.436 s.
------------------------------------------------------------

------------------------------------------------------------
          Begin self-consistency loop: Initialization.

          Date     :  20220721, Time     :  124625.289
------------------------------------------------------------

  Initializing index lists of integration centers etc. from given atomic structure:
  Mapping all atomic coordinates to central unit cell.

  Initializing the k-points
          Using symmetry for reducing the k-points
  | k-points reduced from:      216 to      112
  | Number of k-points                             :       112
  The eigenvectors in the calculations are COMPLEX.
  | K-points in task   0:         5
  | K-points in task   1:         6
  | K-points in task   2:         6
  | K-points in task   3:         6
  | K-points in task   4:         6
  | K-points in task   5:         6
  | K-points in task   6:         6
  | K-points in task   7:         6
  | K-points in task   8:         6
  | K-points in task   9:         6
  | K-points in task  10:         6
  | K-points in task  11:         6
  | K-points in task  12:         6
  | K-points in task  13:         5
  | K-points in task  14:         5
  | K-points in task  15:         5
  | K-points in task  16:         5
  | K-points in task  17:         5
  | K-points in task  18:         5
  | K-points in task  19:         5
  | Number of basis functions in the Hamiltonian integrals :      2500
  | Number of basis functions in a single unit cell        :       102
  | Number of centers in hartree potential         :      1288
  | Number of centers in hartree multipole         :       830
  | Number of centers in electron density summation:       596
  | Number of centers in basis integrals           :       692
  | Number of centers in integrals                 :       232
  | Number of centers in hamiltonian               :       628
  | Consuming        224 KiB for k_phase.
  | Number of super-cells (origin) [n_cells]                     :         847
  | Number of super-cells (after PM_index) [n_cells]             :         128
  | Number of super-cells in hamiltonian [n_cells_in_hamiltonian]:         128
  | Size of matrix packed + index [n_hamiltonian_matrix_size] :      190017
  Partitioning the integration grid into batches with parallel hashing+maxmin method.
  | Number of batches:      674
  | Maximal batch size:     116
  | Minimal batch size:      50
  | Average batch size:      71.347
  | Standard deviation of batch sizes:      17.753

  Integration load balanced across    20 MPI tasks.
  Work distribution over tasks is as follows:
  Task     0 has       2410 integration points.
  Task     1 has       2426 integration points.
  Task     2 has       2398 integration points.
  Task     3 has       2410 integration points.
  Task     4 has       2436 integration points.
  Task     5 has       2360 integration points.
  Task     6 has       2363 integration points.
  Task     7 has       2413 integration points.
  Task     8 has       2420 integration points.
  Task     9 has       2440 integration points.
  Task    10 has       2407 integration points.
  Task    11 has       2370 integration points.
  Task    12 has       2363 integration points.
  Task    13 has       2417 integration points.
  Task    14 has       2419 integration points.
  Task    15 has       2434 integration points.
  Task    16 has       2389 integration points.
  Task    17 has       2407 integration points.
  Task    18 has       2427 integration points.
  Task    19 has       2379 integration points.
  Initializing partition tables, free-atom densities, potentials, etc. across the integration grid (initialize_grid_storage).
  | initialize_grid_storage: Actual outermost partition radius vs. multipole_radius_free
  | (-- VB: in principle, multipole_radius_free should be larger, hence this output)
  | Species        1: Confinement radius =              4.999999999999999 AA, multipole_radius_free =              5.001180127821857 AA.
  | Species        1: outer_partition_radius set to              5.001180127821857 AA .
  | Species        2: Confinement radius =              4.999999999999999 AA, multipole_radius_free =              5.022530438398565 AA.
  | Species        2: outer_partition_radius set to              5.022530438398565 AA .
  | Species        3: Confinement radius =              4.999999999999999 AA, multipole_radius_free =              5.005414751018925 AA.
  | Species        3: outer_partition_radius set to              5.005414751018925 AA .
  | Species        4: Confinement radius =              4.999999999999999 AA, multipole_radius_free =              5.007919576009533 AA.
  | Species        4: outer_partition_radius set to              5.007919576009533 AA .
  | Original list of interatomic distances with         692 x        692 entries is created.
  | Net number of integration points:    48088
  | of which are non-zero points    :    39276
  | Numerical average free-atom electrostatic potential    :    -14.96777942 eV
  Renormalizing the initial density to the exact electron count on the 3D integration grid.
  | Initial density: Formal number of electrons (from input files) :      48.0000000000
  | Integrated number of electrons on 3D grid     :      48.0001719285
  | Charge integration error                      :       0.0001719285
  | Normalization factor for density and gradient :       0.9999964182
  Obtaining max. number of non-zero basis functions in each batch (get_n_compute_maxes).
  | Maximal number of non-zero basis functions:      667 in task     0
  | Maximal number of non-zero basis functions:      662 in task     1
  | Maximal number of non-zero basis functions:      657 in task     2
  | Maximal number of non-zero basis functions:      674 in task     3
  | Maximal number of non-zero basis functions:      678 in task     4
  | Maximal number of non-zero basis functions:      652 in task     5
  | Maximal number of non-zero basis functions:      636 in task     6
  | Maximal number of non-zero basis functions:      675 in task     7
  | Maximal number of non-zero basis functions:      664 in task     8
  | Maximal number of non-zero basis functions:      652 in task     9
  | Maximal number of non-zero basis functions:      671 in task    10
  | Maximal number of non-zero basis functions:      650 in task    11
  | Maximal number of non-zero basis functions:      662 in task    12
  | Maximal number of non-zero basis functions:      672 in task    13
  | Maximal number of non-zero basis functions:      665 in task    14
  | Maximal number of non-zero basis functions:      649 in task    15
  | Maximal number of non-zero basis functions:      668 in task    16
  | Maximal number of non-zero basis functions:      662 in task    17
  | Maximal number of non-zero basis functions:      677 in task    18
  | Maximal number of non-zero basis functions:      660 in task    19
  Allocating        0.318 MB for KS_eigenvector_complex
  Integrating Hamiltonian matrix: batch-based integration.
  Time summed over all CPUs for integration: real work        4.072 s, elapsed        4.278 s
  Integrating overlap matrix.
  Time summed over all CPUs for integration: real work        2.854 s, elapsed        3.013 s
  Decreasing sparse matrix size:
   Tolerance:  9.999999824516700E-014
   Hamiltonian matrix
  | Array has   164588 nonzero elements out of   190017 elements
  | Sparsity factor is 0.134
   Overlap matrix
  | Array has   159174 nonzero elements out of   190017 elements
  | Sparsity factor is 0.162
  New size of hamiltonian matrix:      164775

  Updating Kohn-Sham eigenvalues and eigenvectors using ELSI and the ELPA eigensolver.
  Overlap matrix is nonsingular
  | Lowest eigenvalue of overlap  :  0.40E-03
  | Highest eigenvalue of overlap :  0.15E+02
  Finished singularity check of overlap matrix
  | Time :     0.002 s
  Finished Cholesky decomposition
  | Time :     0.000 s
  Finished transformation to standard eigenproblem
  | Time :     0.001 s
  Starting LAPACK eigensolver
  Finished solving standard eigenproblem
  | Time :     0.002 s
  Finished back-transformation of eigenvectors
  | Time :     0.000 s

  Obtaining occupation numbers and chemical potential using ELSI.
  | Chemical potential (Fermi level):    -9.33436729eV
  Writing Kohn-Sham eigenvalues.
  K-point:       1 at    0.000000    0.000000    0.000000 (in units of recip. lattice)

  State    Occupation    Eigenvalue [Ha]    Eigenvalue [eV]
      1       2.00000         -76.433751        -2079.86818
      2       2.00000         -76.433751        -2079.86818
      3       2.00000          -6.443905         -175.34758
      4       2.00000          -6.443905         -175.34758
      5       2.00000          -4.659124         -126.78122
      6       2.00000          -4.659124         -126.78122
      7       2.00000          -4.659124         -126.78121
      8       2.00000          -4.659124         -126.78121
      9       2.00000          -4.658450         -126.76287
     10       2.00000          -4.658449         -126.76285
     11       2.00000          -1.951650          -53.10709
     12       2.00000          -1.949188          -53.04011
     13       2.00000          -1.946452          -52.96566
     14       2.00000          -1.945142          -52.93000
     15       2.00000          -1.943732          -52.89165
     16       2.00000          -1.942736          -52.86453
     17       2.00000          -0.719292          -19.57294
     18       2.00000          -0.702446          -19.11452
     19       2.00000          -0.484108          -13.17324
     20       2.00000          -0.367453           -9.99892
     21       2.00000          -0.364934           -9.93035
     22       2.00000          -0.364928           -9.93021
     23       2.00000          -0.344708           -9.37999
     24       2.00000          -0.344708           -9.37998
     25       0.00000          -0.201842           -5.49241
     26       0.00000          -0.182391           -4.96311
     27       0.00000          -0.182377           -4.96272
     28       0.00000          -0.166591           -4.53318
     29       0.00000          -0.166584           -4.53297
     30       0.00000          -0.133646           -3.63670
     31       0.00000          -0.095791           -2.60662
     32       0.00000          -0.090888           -2.47319
     33       0.00000          -0.090852           -2.47221
     34       0.00000          -0.046470           -1.26450
     35       0.00000           0.012408            0.33763
     36       0.00000           0.012427            0.33814
     37       0.00000           0.120400            3.27626
     38       0.00000           0.155753            4.23826
     39       0.00000           0.162325            4.41710

  What follows are estimated values for band gap, HOMO, LUMO, etc.
  | They are estimated on a discrete k-point grid and not necessarily exact.
  | For converged numbers, create a DOS and/or band structure plot on a denser k-grid.

  Highest occupied state (VBM) at     -9.37997932 eV (relative to internal zero)
  | Occupation number:      2.00000000
  | K-point:       1 at    0.000000    0.000000    0.000000 (in units of recip. lattice)

  Lowest unoccupied state (CBM) at    -8.50678463 eV (relative to internal zero)
  | Occupation number:      0.00000000
  | K-point:      57 at    0.333333    0.333333    0.000000 (in units of recip. lattice)

  ESTIMATED overall HOMO-LUMO gap:      0.87319468 eV between HOMO at k-point 1 and LUMO at k-point 57
  | This appears to be an indirect band gap.
  | Smallest direct gap :      2.50516803 eV for k_point 57 at    0.333333    0.333333    0.000000 (in units of recip. lattice)
  The gap value is above 0.2 eV. Unless you are using a very sparse k-point grid,
  this system is most likely an insulator or a semiconductor.
  Calculating total energy contributions from superposition of free atom densities.

  Total energy components:
  | Sum of eigenvalues            :        -418.60626822 Ha      -11390.85611856 eV
  | XC energy correction          :         -58.00468932 Ha       -1578.38790390 eV
  | XC potential correction       :          74.82816907 Ha        2036.17808007 eV
  | Free-atom electrostatic energy:        -325.98105086 Ha       -8870.39571472 eV
  | Hartree energy correction     :           0.00000000 Ha           0.00000000 eV
  | Entropy correction            :          -0.00000000 Ha          -0.00000000 eV
  | ---------------------------
  | Total energy                  :        -727.76383933 Ha      -19803.46165710 eV
  | Total energy, T -> 0          :        -727.76383933 Ha      -19803.46165710 eV  <-- do not rely on this value for anything but (periodic) metals
  | Electronic free energy        :        -727.76383933 Ha      -19803.46165710 eV

  Derived energy quantities:
  | Kinetic energy                :         728.04509702 Ha       19811.11506832 eV
  | Electrostatic energy          :       -1397.80424702 Ha      -38036.18882152 eV
  | Energy correction for multipole
  | error in Hartree potential    :           0.00000000 Ha           0.00000000 eV
  | Sum of eigenvalues per atom                           :       -1423.85701482 eV
  | Total energy (T->0) per atom                          :       -2475.43270714 eV  <-- do not rely on this value for anything but (periodic) metals
  | Electronic free energy per atom                       :       -2475.43270714 eV
  Initialize hartree_potential_storage
  Max. number of atoms included in rho_multipole:            8

  End scf initialization - timings             :  max(cpu_time)    wall_clock(cpu1)
  | Time for scf. initialization               :        0.740 s           0.741 s
  | Boundary condition initialization          :        0.074 s           0.074 s
  | Integration                                :        0.377 s           0.376 s
  | Solution of K.-S. eqns.                    :        0.039 s           0.039 s
  | Grid partitioning                          :        0.036 s           0.035 s
  | Preloading free-atom quantities on grid    :        0.008 s           0.008 s
  | Free-atom superposition energy             :        0.021 s           0.021 s
  | Total energy evaluation                    :        0.000 s           0.001 s

  Partial memory accounting:
  | Current value for overall tracked memory usage on task 0  :           3.615 MB
  | Peak value for overall tracked memory usage on task 0     :           9.552 MB after allocating wave
  | Largest tracked array allocation on task 0 so far         :           3.559 MB  when allocating hamiltonian_shell
  Note:  These values currently only include a subset of arrays which are explicitly tracked.
  The "true" memory usage will be greater.
------------------------------------------------------------

------------------------------------------------------------
          Begin self-consistency iteration #    1

  Date     :  20220721, Time     :  124626.030
------------------------------------------------------------
  Evaluating new KS density using the density matrix
  Evaluating density matrix
  Time summed over all CPUs for getting density from density matrix: real work        7.015 s, elapsed        7.286 s
  Integration grid: deviation in total charge (<rho> - N_e) =  -1.023182E-12
  Pulay mixing of updated and previous charge densities.

  Evaluating partitioned Hartree potential by multipole expansion.
  | Analytical far-field extrapolation by fixed multipoles:
  | Hartree multipole sum: apparent total charge =   0.453846E-03
  Summing up the Hartree potential.
  | Estimated reciprocal-space cutoff momentum G_max:         3.12835363 bohr^-1 .
  | Reciprocal lattice points for long-range Hartree potential:     300
  Time summed over all CPUs for potential: real work        2.750 s, elapsed        2.818 s
  | RMS charge density error from multipole expansion :   0.623142E-03
  | Average real-space part of the electrostatic potential :     -0.00095629 eV

  Integrating Hamiltonian matrix: batch-based integration.
  Time summed over all CPUs for integration: real work        3.903 s, elapsed        4.044 s

  Updating Kohn-Sham eigenvalues and eigenvectors using ELSI and the ELPA eigensolver.
  Finished Cholesky decomposition
  | Time :     0.000 s
  Finished transformation to standard eigenproblem
  | Time :     0.000 s
  Starting LAPACK eigensolver
  Finished solving standard eigenproblem
  | Time :     0.002 s
  Finished back-transformation of eigenvectors
  | Time :     0.000 s

  Obtaining occupation numbers and chemical potential using ELSI.
  | Chemical potential (Fermi level):    -9.27489181eV
  Writing Kohn-Sham eigenvalues.
  K-point:       1 at    0.000000    0.000000    0.000000 (in units of recip. lattice)

  State    Occupation    Eigenvalue [Ha]    Eigenvalue [eV]
      1       2.00000         -76.426454        -2079.66962
      2       2.00000         -76.426454        -2079.66962
      3       2.00000          -6.438523         -175.20111
      4       2.00000          -6.438523         -175.20111
      5       2.00000          -4.653551         -126.62955
      6       2.00000          -4.653551         -126.62955
      7       2.00000          -4.653550         -126.62955
      8       2.00000          -4.653550         -126.62955
      9       2.00000          -4.652957         -126.61341
     10       2.00000          -4.652957         -126.61339
     11       2.00000          -1.952887          -53.14077
     12       2.00000          -1.950313          -53.07070
     13       2.00000          -1.947840          -53.00343
     14       2.00000          -1.946273          -52.96078
     15       2.00000          -1.944985          -52.92573
     16       2.00000          -1.944130          -52.90247
     17       2.00000          -0.717270          -19.51791
     18       2.00000          -0.700134          -19.05162
     19       2.00000          -0.483563          -13.15843
     20       2.00000          -0.365845           -9.95516
     21       2.00000          -0.362914           -9.87540
     22       2.00000          -0.362909           -9.87526
     23       2.00000          -0.342517           -9.32037
     24       2.00000          -0.342517           -9.32037
     25       0.00000          -0.201731           -5.48938
     26       0.00000          -0.181663           -4.94330
     27       0.00000          -0.181649           -4.94293
     28       0.00000          -0.165789           -4.51134
     29       0.00000          -0.165781           -4.51112
     30       0.00000          -0.132860           -3.61530
     31       0.00000          -0.094547           -2.57275
     32       0.00000          -0.090671           -2.46730
     33       0.00000          -0.090637           -2.46635
     34       0.00000          -0.046222           -1.25775
     35       0.00000           0.012264            0.33373
     36       0.00000           0.012286            0.33431
     37       0.00000           0.120119            3.26860
     38       0.00000           0.156889            4.26918
     39       0.00000           0.163234            4.44183

  What follows are estimated values for band gap, HOMO, LUMO, etc.
  | They are estimated on a discrete k-point grid and not necessarily exact.
  | For converged numbers, create a DOS and/or band structure plot on a denser k-grid.

  Highest occupied state (VBM) at     -9.32036837 eV (relative to internal zero)
  | Occupation number:      2.00000000
  | K-point:       1 at    0.000000    0.000000    0.000000 (in units of recip. lattice)

  Lowest unoccupied state (CBM) at    -8.52284778 eV (relative to internal zero)
  | Occupation number:      0.00000000
  | K-point:      57 at    0.333333    0.333333    0.000000 (in units of recip. lattice)

  ESTIMATED overall HOMO-LUMO gap:      0.79752059 eV between HOMO at k-point 1 and LUMO at k-point 57
  | This appears to be an indirect band gap.
  | Smallest direct gap :      2.43957694 eV for k_point 57 at    0.333333    0.333333    0.000000 (in units of recip. lattice)
  The gap value is above 0.2 eV. Unless you are using a very sparse k-point grid,
  this system is most likely an insulator or a semiconductor.

  Total energy components:
  | Sum of eigenvalues            :        -418.47740069 Ha      -11387.34945467 eV
  | XC energy correction          :         -58.01214077 Ha       -1578.59066828 eV
  | XC potential correction       :          74.83796938 Ha        2036.44476009 eV
  | Free-atom electrostatic energy:        -325.98105086 Ha       -8870.39571472 eV
  | Hartree energy correction     :          -0.12704600 Ha          -3.45709743 eV
  | Entropy correction            :          -0.00000000 Ha          -0.00000000 eV
  | ---------------------------
  | Total energy                  :        -727.75966894 Ha      -19803.34817501 eV
  | Total energy, T -> 0          :        -727.75966894 Ha      -19803.34817501 eV  <-- do not rely on this value for anything but (periodic) metals
  | Electronic free energy        :        -727.75966894 Ha      -19803.34817501 eV

  Derived energy quantities:
  | Kinetic energy                :         728.10749046 Ha       19812.81288012 eV
  | Electrostatic energy          :       -1397.85501862 Ha      -38037.57038685 eV
  | Energy correction for multipole
  | error in Hartree potential    :           0.00016027 Ha           0.00436111 eV
  | Sum of eigenvalues per atom                           :       -1423.41868183 eV
  | Total energy (T->0) per atom                          :       -2475.41852188 eV  <-- do not rely on this value for anything but (periodic) metals
  | Electronic free energy per atom                       :       -2475.41852188 eV

  Self-consistency convergence accuracy:
  | Change of charge density      :  0.1556E+00
  | Change of sum of eigenvalues  :  0.3507E+01 eV
  | Change of total energy        :  0.1135E+00 eV

  End self-consistency iteration #     1       :  max(cpu_time)    wall_clock(cpu1)
  | Time for this iteration                    :        0.862 s           0.862 s
  | Charge density update                      :        0.374 s           0.374 s
  | Density mixing & preconditioning           :        0.107 s           0.107 s
  | Hartree multipole update                   :        0.001 s           0.001 s
  | Hartree multipole summation                :        0.144 s           0.144 s
  | Integration                                :        0.207 s           0.207 s
  | Solution of K.-S. eqns.                    :        0.027 s           0.027 s
  | Total energy evaluation                    :        0.000 s           0.000 s

  Partial memory accounting:
  | Current value for overall tracked memory usage on task 0  :           3.615 MB
  | Peak value for overall tracked memory usage on task 0     :          10.888 MB after allocating gradient_basis_wave
  | Largest tracked array allocation on task 0 so far         :           3.559 MB  when allocating hamiltonian_shell
  Note:  These values currently only include a subset of arrays which are explicitly tracked.
  The "true" memory usage will be greater.
------------------------------------------------------------

------------------------------------------------------------
          Begin self-consistency iteration #    2

  Date     :  20220721, Time     :  124626.893
------------------------------------------------------------
  Evaluating new KS density using the density matrix
  Evaluating density matrix
  Time summed over all CPUs for getting density from density matrix: real work        7.007 s, elapsed        7.249 s
  Integration grid: deviation in total charge (<rho> - N_e) =  -1.165290E-12
  Pulay mixing of updated and previous charge densities.

  Evaluating partitioned Hartree potential by multipole expansion.
  | Analytical far-field extrapolation by fixed multipoles:
  | Hartree multipole sum: apparent total charge =   0.359828E-02
  Summing up the Hartree potential.
  Time summed over all CPUs for potential: real work        3.047 s, elapsed        3.126 s
  | RMS charge density error from multipole expansion :   0.828299E-02
  | Average real-space part of the electrostatic potential :     -0.01354520 eV

  Integrating Hamiltonian matrix: batch-based integration.
  Time summed over all CPUs for integration: real work        3.933 s, elapsed        4.073 s

  Updating Kohn-Sham eigenvalues and eigenvectors using ELSI and the ELPA eigensolver.
  Finished Cholesky decomposition
  | Time :     0.000 s
  Finished transformation to standard eigenproblem
  | Time :     0.001 s
  Starting LAPACK eigensolver
  Finished solving standard eigenproblem
  | Time :     0.002 s
  Finished back-transformation of eigenvectors
  | Time :     0.000 s

  Obtaining occupation numbers and chemical potential using ELSI.
  | Chemical potential (Fermi level):    -8.63244819eV
  What follows are estimated values for band gap, HOMO, LUMO, etc.
  | They are estimated on a discrete k-point grid and not necessarily exact.
  | For converged numbers, create a DOS and/or band structure plot on a denser k-grid.

  Highest occupied state (VBM) at     -8.65305100 eV (relative to internal zero)
  | Occupation number:      1.99642800
  | K-point:       2 at    0.000000    0.000000    0.166667 (in units of recip. lattice)

  Lowest unoccupied state (CBM) at    -8.61342092 eV (relative to internal zero)
  | Occupation number:      0.00712674
  | K-point:       1 at    0.000000    0.000000    0.000000 (in units of recip. lattice)

  ESTIMATED overall HOMO-LUMO gap:      0.03963008 eV between HOMO at k-point 2 and LUMO at k-point 1
  | This appears to be an indirect band gap.
  | Smallest direct gap :      0.61203937 eV for k_point 1 at    0.000000    0.000000    0.000000 (in units of recip. lattice)
  However, the gap value is rather small. Since we use a finite k-point grid,
  this material is most likely metallic (in the sense that there are states
  at or near the Fermi level). A DOS and/or band structure plot is required
  for an unambiguous distinction.

  Checking to see if s.c.f. parameters should be adjusted.
  Adjusted the Pulay mixing parameter (charge_mix_param) for an expected low-gap system. New value:   0.020000 .
  Adjusted the occupation broadening width for an expected low-gap system. New value:      0.05000000 eV.

  Total energy components:
  | Sum of eigenvalues            :        -416.94200564 Ha      -11345.56922966 eV
  | XC energy correction          :         -58.10871469 Ha       -1581.21857816 eV
  | XC potential correction       :          74.96427719 Ha        2039.88177038 eV
  | Free-atom electrostatic energy:        -325.98105086 Ha       -8870.39571472 eV
  | Hartree energy correction     :          -1.66794179 Ha         -45.38700533 eV
  | Entropy correction            :          -0.00001459 Ha          -0.00039709 eV
  | ---------------------------
  | Total energy                  :        -727.73543579 Ha      -19802.68875748 eV
  | Total energy, T -> 0          :        -727.73545038 Ha      -19802.68915457 eV  <-- do not rely on this value for anything but (periodic) metals
  | Electronic free energy        :        -727.73546497 Ha      -19802.68955167 eV

  Derived energy quantities:
  | Kinetic energy                :         728.82692920 Ha       19832.38980442 eV
  | Electrostatic energy          :       -1398.45365030 Ha      -38053.85998374 eV
  | Energy correction for multipole
  | error in Hartree potential    :           0.00217022 Ha           0.05905458 eV
  | Sum of eigenvalues per atom                           :       -1418.19615371 eV
  | Total energy (T->0) per atom                          :       -2475.33614432 eV  <-- do not rely on this value for anything but (periodic) metals
  | Electronic free energy per atom                       :       -2475.33619396 eV

  Self-consistency convergence accuracy:
  | Change of charge density      :  0.1446E+00
  | Change of sum of eigenvalues  :  0.4178E+02 eV
  | Change of total energy        :  0.6594E+00 eV

  End self-consistency iteration #     2       :  max(cpu_time)    wall_clock(cpu1)
  | Time for this iteration                    :        0.876 s           0.876 s
  | Charge density update                      :        0.371 s           0.371 s
  | Density mixing & preconditioning           :        0.101 s           0.101 s
  | Hartree multipole update                   :        0.001 s           0.001 s
  | Hartree multipole summation                :        0.160 s           0.160 s
  | Integration                                :        0.209 s           0.209 s
  | Solution of K.-S. eqns.                    :        0.032 s           0.033 s
  | Total energy evaluation                    :        0.001 s           0.000 s

  Partial memory accounting:
  | Current value for overall tracked memory usage on task 0  :           3.615 MB
  | Peak value for overall tracked memory usage on task 0     :          10.888 MB after allocating gradient_basis_wave
  | Largest tracked array allocation on task 0 so far         :           3.559 MB  when allocating hamiltonian_shell
  Note:  These values currently only include a subset of arrays which are explicitly tracked.
  The "true" memory usage will be greater.
------------------------------------------------------------

------------------------------------------------------------
          Begin self-consistency iteration #    3

  Date     :  20220721, Time     :  124627.770
------------------------------------------------------------
  Evaluating new KS density using the density matrix
  Evaluating density matrix
  Time summed over all CPUs for getting density from density matrix: real work        7.096 s, elapsed        7.402 s
  Integration grid: deviation in total charge (<rho> - N_e) =  -1.065814E-12
  Pulay mixing of updated and previous charge densities.

  Evaluating partitioned Hartree potential by multipole expansion.
  | Analytical far-field extrapolation by fixed multipoles:
  | Hartree multipole sum: apparent total charge =   0.441550E-03
  Summing up the Hartree potential.
  Time summed over all CPUs for potential: real work        3.051 s, elapsed        3.133 s
  | RMS charge density error from multipole expansion :   0.975505E-02
  | Average real-space part of the electrostatic potential :     -0.05274406 eV

  Integrating Hamiltonian matrix: batch-based integration.
  Time summed over all CPUs for integration: real work        3.916 s, elapsed        4.050 s

  Updating Kohn-Sham eigenvalues and eigenvectors using ELSI and the ELPA eigensolver.
  Finished Cholesky decomposition
  | Time :     0.000 s
  Finished transformation to standard eigenproblem
  | Time :     0.001 s
  Starting LAPACK eigensolver
  Finished solving standard eigenproblem
  | Time :     0.002 s
  Finished back-transformation of eigenvectors
  | Time :     0.000 s

  Obtaining occupation numbers and chemical potential using ELSI.
  | Chemical potential (Fermi level):    -8.66222681eV
  What follows are estimated values for band gap, HOMO, LUMO, etc.
  | They are estimated on a discrete k-point grid and not necessarily exact.
  | For converged numbers, create a DOS and/or band structure plot on a denser k-grid.

  Highest occupied state (VBM) at     -8.67596866 eV (relative to internal zero)
  | Occupation number:      1.30248571
  | K-point:       1 at    0.000000    0.000000    0.000000 (in units of recip. lattice)

  Lowest unoccupied state (CBM) at    -8.66036765 eV (relative to internal zero)
  | Occupation number:      0.95806258
  | K-point:      57 at    0.333333    0.333333    0.000000 (in units of recip. lattice)

  ESTIMATED overall HOMO-LUMO gap:      0.01560101 eV between HOMO at k-point 1 and LUMO at k-point 57
  | This appears to be an indirect band gap.
  | Smallest direct gap :      1.76478174 eV for k_point 57 at    0.333333    0.333333    0.000000 (in units of recip. lattice)
  However, this system has fractional occupation numbers. Since we use a finite k-point grid,
  this material is metallic within the approximate finite broadening function (occupation_type)
  applied to determine the occupation numbers.

  Total energy components:
  | Sum of eigenvalues            :        -417.33388271 Ha      -11356.23274720 eV
  | XC energy correction          :         -58.07718980 Ha       -1580.36074234 eV
  | XC potential correction       :          74.92366635 Ha        2038.77669314 eV
  | Free-atom electrostatic energy:        -325.98105086 Ha       -8870.39571472 eV
  | Hartree energy correction     :          -1.26713431 Ha         -34.48047885 eV
  | Entropy correction            :          -0.00001231 Ha          -0.00033488 eV
  | ---------------------------
  | Total energy                  :        -727.73559133 Ha      -19802.69298996 eV
  | Total energy, T -> 0          :        -727.73560363 Ha      -19802.69332484 eV  <-- do not rely on this value for anything but (periodic) metals
  | Electronic free energy        :        -727.73561594 Ha      -19802.69365972 eV

  Derived energy quantities:
  | Kinetic energy                :         728.35540535 Ha       19819.55898773 eV
  | Electrostatic energy          :       -1398.01380688 Ha      -38041.89123536 eV
  | Energy correction for multipole
  | error in Hartree potential    :           0.00297532 Ha           0.08096269 eV
  | Sum of eigenvalues per atom                           :       -1419.52909340 eV
  | Total energy (T->0) per atom                          :       -2475.33666560 eV  <-- do not rely on this value for anything but (periodic) metals
  | Electronic free energy per atom                       :       -2475.33670746 eV

  Self-consistency convergence accuracy:
  | Change of charge density      :  0.4146E-01
  | Change of sum of eigenvalues  : -0.1066E+02 eV
  | Change of total energy        : -0.4232E-02 eV

[...]
  | XC energy correction          :         -58.07617784 Ha       -1580.33320551 eV
  | XC potential correction       :          74.92181592 Ha        2038.72634033 eV
  | Free-atom electrostatic energy:        -325.98105086 Ha       -8870.39571472 eV
  | Hartree energy correction     :          -1.20554336 Ha         -32.80450398 eV
  | Entropy correction            :          -0.00001253 Ha          -0.00034093 eV
  | ---------------------------
  | Total energy                  :        -727.73516128 Ha      -19802.68128766 eV
  | Total energy, T -> 0          :        -727.73517381 Ha      -19802.68162858 eV  <-- do not rely on this value for anything but (periodic) metals
  | Electronic free energy        :        -727.73518633 Ha      -19802.68196951 eV

  Derived energy quantities:
  | Kinetic energy                :         728.20069992 Ha       19815.34923856 eV
  | Electrostatic energy          :       -1397.85968335 Ha      -38037.69732071 eV
  | Energy correction for multipole
  | error in Hartree potential    :           0.00427645 Ha           0.11636808 eV
  | Sum of eigenvalues per atom                           :       -1419.73427547 eV
  | Total energy (T->0) per atom                          :       -2475.33520357 eV  <-- do not rely on this value for anything but (periodic) metals
  | Electronic free energy per atom                       :       -2475.33524619 eV

  atomic forces [eV/Ang]:
  -----------------------
  atom #    1
   Hellmann-Feynman              :  0.729540E-07  0.100098E-02 -0.245298E-06
   Ionic forces                  :  0.000000E+00  0.000000E+00  0.000000E+00
   Multipole                     : -0.101352E-08  0.148520E-03  0.485699E-09
   Pulay + GGA                   :  0.342172E-07 -0.110375E-02 -0.100312E-06
   ----------------------------------------------------------------
   Total forces(   1)            :  0.106158E-06  0.457423E-04 -0.345124E-06
  atom #    2
   Hellmann-Feynman              : -0.729539E-07 -0.100098E-02  0.244857E-06
   Ionic forces                  :  0.000000E+00  0.000000E+00  0.000000E+00
   Multipole                     :  0.101352E-08 -0.148520E-03 -0.483178E-09
   Pulay + GGA                   : -0.342165E-07  0.110375E-02  0.103688E-06
   ----------------------------------------------------------------
   Total forces(   2)            : -0.106157E-06 -0.457423E-04  0.348062E-06
  atom #    3
   Hellmann-Feynman              : -0.115153E-06 -0.325358E-02 -0.657201E-01
   Ionic forces                  :  0.000000E+00  0.000000E+00  0.000000E+00
   Multipole                     : -0.199640E-08  0.542557E-03  0.203575E-01
   Pulay + GGA                   : -0.410530E-07  0.309859E-02  0.214574E+00
   ----------------------------------------------------------------
   Total forces(   3)            : -0.158202E-06  0.387573E-03  0.169212E+00
  atom #    4
   Hellmann-Feynman              :  0.115153E-06  0.325358E-02 -0.657204E-01
   Ionic forces                  :  0.000000E+00  0.000000E+00  0.000000E+00
   Multipole                     :  0.199640E-08 -0.542557E-03  0.203575E-01
   Pulay + GGA                   :  0.410598E-07 -0.309859E-02  0.214574E+00
   ----------------------------------------------------------------
   Total forces(   4)            :  0.158209E-06 -0.387573E-03  0.169211E+00
  atom #    5
   Hellmann-Feynman              :  0.115153E-06  0.325358E-02  0.657201E-01
   Ionic forces                  :  0.000000E+00  0.000000E+00  0.000000E+00
   Multipole                     :  0.199641E-08 -0.542557E-03 -0.203575E-01
   Pulay + GGA                   :  0.410555E-07 -0.309859E-02 -0.214574E+00
   ----------------------------------------------------------------
   Total forces(   5)            :  0.158205E-06 -0.387573E-03 -0.169212E+00
  atom #    6
   Hellmann-Feynman              : -0.115153E-06 -0.325358E-02  0.657204E-01
   Ionic forces                  :  0.000000E+00  0.000000E+00  0.000000E+00
   Multipole                     : -0.199640E-08  0.542557E-03 -0.203575E-01
   Pulay + GGA                   : -0.410646E-07  0.309859E-02 -0.214574E+00
   ----------------------------------------------------------------
   Total forces(   6)            : -0.158214E-06  0.387574E-03 -0.169211E+00
  atom #    7
   Hellmann-Feynman              :  0.246964E-06 -0.890407E-02 -0.164937E-05
   Ionic forces                  :  0.000000E+00  0.000000E+00  0.000000E+00
   Multipole                     : -0.430916E-08 -0.153877E-02  0.204673E-08
   Pulay + GGA                   : -0.568130E-06  0.101995E-01 -0.179091E-05
   ----------------------------------------------------------------
   Total forces(   7)            : -0.325475E-06 -0.243318E-03 -0.343824E-05
  atom #    8
   Hellmann-Feynman              : -0.247488E-06  0.890407E-02  0.164211E-05
   Ionic forces                  :  0.000000E+00  0.000000E+00  0.000000E+00
   Multipole                     :  0.431113E-08  0.153877E-02 -0.203876E-08
   Pulay + GGA                   :  0.567194E-06 -0.101995E-01  0.175920E-05
   ----------------------------------------------------------------
   Total forces(   8)            :  0.324017E-06  0.243325E-03  0.339927E-05


  Self-consistency convergence accuracy:
  | Change of charge density      :  0.1491E-06
  | Change of sum of eigenvalues  :  0.4252E-06 eV
  | Change of total energy        : -0.5816E-09 eV
  | Change of forces              :  0.5871E-05 eV/A

  Writing Kohn-Sham eigenvalues.
  K-point:       1 at    0.000000    0.000000    0.000000 (in units of recip. lattice)

  State    Occupation    Eigenvalue [Ha]    Eigenvalue [eV]
      1       2.00000         -76.365870        -2078.02105
      2       2.00000         -76.365870        -2078.02105
      3       2.00000          -6.391902         -173.93250
      4       2.00000          -6.391902         -173.93250
      5       2.00000          -4.605839         -125.33124
      6       2.00000          -4.605838         -125.33122
      7       2.00000          -4.605208         -125.31408
      8       2.00000          -4.605208         -125.31408
      9       2.00000          -4.605207         -125.31406
     10       2.00000          -4.605207         -125.31406
     11       2.00000          -1.974607          -53.73179
     12       2.00000          -1.971158          -53.63794
     13       2.00000          -1.970961          -53.63257
     14       2.00000          -1.967572          -53.54035
     15       2.00000          -1.961949          -53.38734
     16       2.00000          -1.961876          -53.38537
     17       2.00000          -0.692839          -18.85310
     18       2.00000          -0.671844          -18.28180
     19       2.00000          -0.477070          -12.98173
     20       2.00000          -0.346739           -9.43525
     21       2.00000          -0.338428           -9.20909
     22       2.00000          -0.338423           -9.20897
     23       0.84322          -0.315849           -8.59468
     24       0.84058          -0.315844           -8.59456
     25       0.00000          -0.198712           -5.40723
     26       0.00000          -0.171694           -4.67203
     27       0.00000          -0.171684           -4.67176
     28       0.00000          -0.155296           -4.22581
     29       0.00000          -0.155283           -4.22546
     30       0.00000          -0.121190           -3.29774
     31       0.00000          -0.088253           -2.40148
     32       0.00000          -0.088230           -2.40087
     33       0.00000          -0.078566           -2.13789
     34       0.00000          -0.039846           -1.08427
     35       0.00000           0.011098            0.30200
     36       0.00000           0.011141            0.30315
     37       0.00000           0.118705            3.23012
     38       0.00000           0.170123            4.62928
     39       0.00000           0.174958            4.76085

  What follows are estimated values for band gap, HOMO, LUMO, etc.
  | They are estimated on a discrete k-point grid and not necessarily exact.
  | For converged numbers, create a DOS and/or band structure plot on a denser k-grid.

  Highest occupied state (VBM) at     -8.63452381 eV (relative to internal zero)
  | Occupation number:      1.64726801
  | K-point:       2 at    0.000000    0.000000    0.166667 (in units of recip. lattice)

  Lowest unoccupied state (CBM) at    -8.59467537 eV (relative to internal zero)
  | Occupation number:      0.84321642
  | K-point:       1 at    0.000000    0.000000    0.000000 (in units of recip. lattice)

  ESTIMATED overall HOMO-LUMO gap:      0.03984844 eV between HOMO at k-point 2 and LUMO at k-point 1
  | This appears to be an indirect band gap.
  | Smallest direct gap :      0.61429173 eV for k_point 1 at    0.000000    0.000000    0.000000 (in units of recip. lattice)
  However, this system has fractional occupation numbers. Since we use a finite k-point grid,
  this material is metallic within the approximate finite broadening function (occupation_type)
  applied to determine the occupation numbers.

  Self-consistency cycle converged.

  End self-consistency iteration #    23       :  max(cpu_time)    wall_clock(cpu1)
  | Time for this iteration                    :        3.981 s           3.981 s
  | Charge density & force component update    :        3.273 s           3.273 s
  | Density mixing                             :        0.001 s           0.001 s
  | Hartree multipole update                   :        0.001 s           0.002 s
  | Hartree multipole summation                :        0.464 s           0.464 s
  | Integration                                :        0.207 s           0.207 s
  | Solution of K.-S. eqns.                    :        0.032 s           0.032 s
  | Total energy evaluation                    :        0.001 s           0.000 s

  Partial memory accounting:
  | Current value for overall tracked memory usage on task 0  :           3.615 MB
  | Peak value for overall tracked memory usage on task 0     :          19.554 MB after allocating wave_pulay
  | Largest tracked array allocation on task 0 so far         :           3.714 MB  when allocating hessian_basis_wave
  Note:  These values currently only include a subset of arrays which are explicitly tracked.
  The "true" memory usage will be greater.
------------------------------------------------------------
  |------------------------------------------
  | Final ELSI Output
  |------------------------------------------
  | Number of basis functions :          102
  | Number of electrons       :         48.0
  | Number of states          :           39
  | Solver                    :         ELPA
  | Parallel mode             :  SINGLE_PROC
  | Matrix format             :  BLACS_DENSE
  |------------------------------------------
  | ELSI Project (c)  elsi-interchange.org
  |------------------------------------------
  Removing unitary transformations (pure translations, rotations) from forces on atoms.
  Atomic forces before filtering:
  | Net force on center of mass :  -0.146029E-08  0.723758E-08 -0.358902E-07 eV/A
  Atomic forces after filtering:
  | Net force on center of mass :   0.000000E+00  0.000000E+00  0.288471E-16 eV/A

  Energy and forces in a compact form:
  | Total energy uncorrected      :         -0.198026812876582E+05 eV
  | Total energy corrected        :         -0.198026816285834E+05 eV  <-- do not rely on this value for anything but (periodic) metals
  | Electronic free energy        :         -0.198026819695086E+05 eV
  Total atomic forces (unitary forces cleaned) [eV/Ang]:
  |   1          0.106340153909182E-06          0.457414100865103E-04         -0.340638138418295E-06
  |   2         -0.105974348901441E-06         -0.457432231353844E-04          0.352548747263451E-06
  |   3         -0.158019739570737E-06          0.387572488039390E-03          0.169211639450208E+00
  |   4          0.158391271621558E-06         -0.387574400803192E-03          0.169211360756552E+00
  |   5          0.158387130574679E-06         -0.387574298768630E-03         -0.169211630402055E+00
  |   6         -0.158031237229705E-06          0.387572611243061E-03         -0.169211351722331E+00
  |   7         -0.325292885169042E-06         -0.243319164566395E-03         -0.343375195347872E-05
  |   8          0.324199654765507E-06          0.243324577904640E-03          0.340375897055846E-05

  ------------------------------------ 
  Start decomposition of the XC Energy 
  ------------------------------------ 
  X and C from original XC functional choice 
  Hartree-Fock Energy :          0.000000000 Ha              0.000000000 eV
  X Energy            :        -56.371931595 Ha          -1533.958305639 eV
  C Energy            :         -1.704246246 Ha            -46.374899872 eV
  Total XC Energy     :        -58.076177841 Ha          -1580.333205511 eV
  ------------------------------------ 
  LDA X and C from self-consistent density 
  X Energy LDA        :        -51.864144275 Ha          -1411.295171627 eV
  C Energy LDA        :         -3.404281146 Ha            -92.635203212 eV
  ------------------------------------ 
  End decomposition of the XC Energy 
  ------------------------------------ 

------------------------------------------------------------

------------------------------------------------------------------------------
  Final output of selected total energy values:

  The following output summarizes some interesting total energy values
  at the end of a run (AFTER all relaxation, molecular dynamics, etc.).

  | Total energy of the DFT / Hartree-Fock s.c.f. calculation      :         -19802.681287658 eV
  | Final zero-broadening corrected energy (caution - metals only) :         -19802.681628583 eV
  | For reference only, the value of 1 Hartree used in FHI-aims is :             27.211384500 eV

  Before relying on these values, please be sure to understand exactly which
  total energy value is referred to by a given number. Different objects may
  all carry the same name 'total energy'. Definitions:

  Total energy of the DFT / Hartree-Fock s.c.f. calculation:
  | Note that this energy does not include ANY quantities calculated after the
  | s.c.f. cycle, in particular not ANY RPA, MP2, etc. many-body perturbation terms.

  Final zero-broadening corrected energy:
  | For metallic systems only, a broadening of the occupation numbers at the Fermi
  | level can be extrapolated back to zero broadening by an electron-gas inspired
  | formula. For all systems that are not real metals, this value can be
  | meaningless and should be avoided.

------------------------------------------------------------------------------
  Methods described in the following list of references were used in this FHI-aims run.
  If you publish the results, please make sure to cite these reference if they apply.
  FHI-aims is an academic code, and for our developers (often, Ph.D. students
  and postdocs), scientific credit in the community is essential.
  Thank you for helping us!

  For any use of FHI-aims, please cite:

    Volker Blum, Ralf Gehrke, Felix Hanke, Paula Havu, Ville Havu,
    Xinguo Ren, Karsten Reuter, and Matthias Scheffler
    'Ab initio molecular simulations with numeric atom-centered orbitals'
    Computer Physics Communications 180, 2175-2196 (2009)
    http://dx.doi.org/10.1016/j.cpc.2009.06.022


  The provided symmetry information was generated with SPGlib:

    Atsushi Togo, Yusuke Seto, Dimitar Pashov
    SPGlib 1.7.3 obtained from http://spglib.sourceforge.net
    Copyright (C) 2008 Atsushi Togo


  The scalable eigensolver library ELPA was used in your run.
  ELPA is essential especially for large systems on hundreds or thousands of CPUs.
  For ELPA, please cite:

    Andreas Marek, Volker Blum, Rainer Johanni, Ville Havu, Bruno Lang,
    Thomas Auckenthaler, Alexander Heinecke, Hans-Joachim Bungartz, and Hermann Lederer,
    'The ELPA Library - Scalable Parallel Eigenvalue Solutions
    for Electronic Structure Theory and Computational Science'
    The Journal of Physics: Condensed Matter 26, 213201 (2014).
    http://dx.doi.org/10.1088/0953-8984/26/21/213201


  The ELSI infrastructure was used in your run to solve the Kohn-Sham electronic structure.
  Please check out http://elsi-interchange.org to learn more.
  If scalability is important for your project, please acknowledge ELSI by citing:

    V. W-z. Yu, F. Corsetti, A. Garcia, W. P. Huhn, M. Jacquelin, W. Jia,
    B. Lange, L. Lin, J. Lu, W. Mi, A. Seifitokaldani, A. Vazquez-Mayagoitia,
    C. Yang, H. Yang, and V. Blum
    'ELSI: A unified software interface for Kohn-Sham electronic structure solvers'
    Computer Physics Communications 222, 267-285 (2018).
    http://dx.doi.org/10.1016/j.cpc.2017.09.007


  For the real-space grid partitioning and parallelization used in this calculation, please cite:

    Ville Havu, Volker Blum, Paula Havu, and Matthias Scheffler,
    'Efficient O(N) integration for all-electron electronic structure calculation'
    'using numerically tabulated basis functions'
    Journal of Computational Physics 228, 8367-8379 (2009).
    http://dx.doi.org/10.1016/j.jcp.2009.08.008

  Of course, there are many other important community references, e.g., those cited in the
  above references. Our list is limited to references that describe implementations in the
  FHI-aims code. The reason is purely practical (length of this list) - please credit others as well.

------------------------------------------------------------
          Leaving FHI-aims.
          Date     :  20220721, Time     :  124649.725

          Computational steps:
          | Number of self-consistency cycles          :           23
          | Number of SCF (re)initializations          :            1

          Detailed time accounting                     :  max(cpu_time)    wall_clock(cpu1)
          | Total time                                 :       24.962 s          24.970 s
          | Preparation time                           :        0.413 s           0.436 s
          | Boundary condition initalization           :        0.074 s           0.074 s
          | Grid partitioning                          :        0.036 s           0.035 s
          | Preloading free-atom quantities on grid    :        0.008 s           0.008 s
          | Free-atom superposition energy             :        0.021 s           0.021 s
          | Total time for integrations                :        5.147 s           5.147 s
          | Total time for solution of K.-S. equations :        0.774 s           0.778 s
          | Total time for density & force components  :       11.675 s          11.666 s
          | Total time for mixing & preconditioning    :        2.129 s           2.129 s
          | Total time for Hartree multipole update    :        0.030 s           0.033 s
          | Total time for Hartree multipole sum       :        4.305 s           4.303 s
          | Total time for total energy evaluation     :        0.006 s           0.009 s

          Partial memory accounting:
          | Residual value for overall tracked memory usage across tasks :           0.000 MB (should be 0.000 MB)
          | Peak values for overall tracked memory usage (after allocating wave_pulay):
          |   Minimum:       18.719 MB (on task  7)
          |   Maximum:       19.940 MB (on task  5)
          |   Average:       19.466 MB
          | Largest tracked array allocation (hessian_basis_wave):
          |   Minimum:        3.541 MB (on task  7)
          |   Maximum:        3.775 MB (on task  5)
          |   Average:        3.690 MB
          Note:  These values currently only include a subset of arrays which are explicitly tracked.
          The "true" memory usage will be greater.

          Have a nice day.
------------------------------------------------------------
