  MPI-parallelism will be employed.
------------------------------------------------------------
          Invoking FHI-aims ...
          Version 171221_1
          Compiled on 2020/09/23 at 19:46:43 on host login.service.

          When using FHI-aims, please cite the following reference:

          Volker Blum, Ralf Gehrke, Felix Hanke, Paula Havu,
          Ville Havu, Xinguo Ren, Karsten Reuter, and Matthias Scheffler,
          'Ab Initio Molecular Simulations with Numeric Atom-Centered Orbitals',
          Computer Physics Communications 180, 2175-2196 (2009)

          For any questions about FHI-aims, please visit the aimsclub website
          with its forums and wiki. Contributions to both the forums and the
          wiki are warmly encouraged - they are for you, and everyone is welcome there.

------------------------------------------------------------



  Date     :  20220704, Time     :  093734.594
  Time zero on CPU 1             :   0.848600000000000E-01  s.
  Internal wall clock time zero  :           426159454.594  s.

  FHI-aims created a unique identifier for this run for later identification
  aims_uuid : 27DBC175-2E6C-417A-A1BF-AEA922AB2C17

  Using       20 parallel tasks.
  Task        0 on host node047 reporting.
  Task        1 on host node047 reporting.
  Task        2 on host node047 reporting.
  Task        3 on host node047 reporting.
  Task        4 on host node047 reporting.
  Task        5 on host node047 reporting.
  Task        6 on host node047 reporting.
  Task        7 on host node047 reporting.
  Task        8 on host node047 reporting.
  Task        9 on host node047 reporting.
  Task       10 on host node047 reporting.
  Task       11 on host node047 reporting.
  Task       12 on host node047 reporting.
  Task       13 on host node047 reporting.
  Task       14 on host node047 reporting.
  Task       15 on host node047 reporting.
  Task       16 on host node047 reporting.
  Task       17 on host node047 reporting.
  Task       18 on host node047 reporting.
  Task       19 on host node047 reporting.

  Performing system and environment tests:
  *** Environment variable OMP_NUM_THREADS is not set
  *** For performance reasons you might want to set it to 1
  | Maximum stacksize for task 0: unlimited
  | Maximum stacksize for task 1: unlimited
  | Maximum stacksize for task 2: unlimited
  | Maximum stacksize for task 3: unlimited
  | Maximum stacksize for task 4: unlimited
  | Maximum stacksize for task 5: unlimited
  | Maximum stacksize for task 6: unlimited
  | Maximum stacksize for task 7: unlimited
  | Maximum stacksize for task 8: unlimited
  | Maximum stacksize for task 9: unlimited
  | Maximum stacksize for task 10: unlimited
  | Maximum stacksize for task 11: unlimited
  | Maximum stacksize for task 12: unlimited
  | Maximum stacksize for task 13: unlimited
  | Maximum stacksize for task 14: unlimited
  | Maximum stacksize for task 15: unlimited
  | Maximum stacksize for task 16: unlimited
  | Maximum stacksize for task 17: unlimited
  | Maximum stacksize for task 18: unlimited
  | Maximum stacksize for task 19: unlimited
  | Current stacksize for task 0: unlimited
  | Current stacksize for task 1: unlimited
  | Current stacksize for task 2: unlimited
  | Current stacksize for task 3: unlimited
  | Current stacksize for task 4: unlimited
  | Current stacksize for task 5: unlimited
  | Current stacksize for task 6: unlimited
  | Current stacksize for task 7: unlimited
  | Current stacksize for task 8: unlimited
  | Current stacksize for task 9: unlimited
  | Current stacksize for task 10: unlimited
  | Current stacksize for task 11: unlimited
  | Current stacksize for task 12: unlimited
  | Current stacksize for task 13: unlimited
  | Current stacksize for task 14: unlimited
  | Current stacksize for task 15: unlimited
  | Current stacksize for task 16: unlimited
  | Current stacksize for task 17: unlimited
  | Current stacksize for task 18: unlimited
  | Current stacksize for task 19: unlimited
  | Checking for scalapack...
  | Testing pdtran()...
  | All pdtran() tests passed.

  Obtaining array dimensions for all initial allocations:
  
  -----------------------------------------------------------------------
  Parsing control.in (first pass over file, find array dimensions only).
  The contents of control.in will be repeated verbatim below
  unless switched off by setting 'verbatim_writeout .false.' .
  in the first line of control.in .
  -----------------------------------------------------------------------
  
  #===============================================================================
  # FHI-aims file: ./control.in
  # Created using the Atomic Simulation Environment (ASE)
  # Wed Mar 24 12:41:28 2021
  #===============================================================================
  xc                                 pbe
  sc_accuracy_etot                   1e-06
  sc_accuracy_eev                    0.001
  sc_accuracy_rho                    1e-06
  sc_accuracy_forces                 0.0001
  friction_temperature               300  # default 300
  
    k_grid                           1  2  2
  
  
  
  ################################################################################
  #
  #  FHI-aims code project
  # Volker Blum, Fritz Haber Institute Berlin, 2009
  #
  #  Suggested "tight" defaults for Li atom (to be pasted into control.in file)
  #
  #  2016/03/22: Increased cutoff radius to 5.0 AA (Xinguo Ren, Aug 15, 2015)
  #
  ################################################################################
    species        Li
  #     global species definitions
      nucleus             3
      mass                6.941
  #
      l_hartree           6
  #
      cut_pot             5.0  2.0  1.0
      basis_dep_cutoff    1e-4
  #
      radial_base         29 7.0
      radial_multiplier   2
      angular_grids       specified
        division   0.4484  110
        division   0.5659  194
        division   0.6315  302
        division   0.6662  434
  #      division   0.8186  590
  #      division   0.9037  770
  #      division   6.2760  974
  #      outer_grid   974
        outer_grid  434
  ################################################################################
  #
  #  Definition of "minimal" basis
  #
  ################################################################################
  #     valence basis states
      valence      2  s   1.
  #     ion occupancy
      ion_occ      1  s   2.
  ################################################################################
  #
  #  Suggested additional basis functions. For production calculations,
  #  uncomment them one after another (the most important basis functions are
  #  listed first).
  #
  #  Constructed for dimers: 1.80 A, 2.25 A, 2.75 A, 3.50 A, 4.50 A
  #
  ################################################################################
  #  "First tier" - improvements: -189.23 meV to -6.35 meV
       hydro 2 p 1.6
       hydro 2 s 2
       hydro 3 d 2.6
  #  "Second tier" - improvements: -4.69 meV to -0.41 meV
       hydro 3 p 4.6
       hydro 2 p 1.8
       hydro 3 s 6.2
       hydro 4 d 4.7
       hydro 4 f 4.1
  #  "Third tier" - improvements: -0.20 meV to -0.15 meV
  #     hydro 4 d 0.95
  #     hydro 3 p 6.2
  #     hydro 3 s 1.7
  #  Further functions, listed for completeness
  #     VB: The following functions are only listed for completeness; test very
  #         carefully before any kind of production use. From the point of view
  #         of the basis construction, their main role is to fill up space,
  #         and they are solely determined by the location of the cutoff potential.
  #     hydro 3 p 0.1  # -0.15 meV
  #     hydro 4 d 5    # -0.12 meV
  #     hydro 4 f 0.1  # -0.14 meV
  #     hydro 5 g 0.1  # -0.06 meV
  
  
  ################################################################################
  #
  # For methods that use the localized form of the "resolution of identity" for
  # the two-electron Coulomb operator (RI_method LVL), particularly Hartree-Fock and
  # hybrid density functional calculations, the highest accuracy can be obtained by
  # uncommenting the line beginning with "for_aux"  below, thus adding an extra g radial
  # function to the construction of the product basis set for the expansion.
  # See Ref. New J. Phys. 17, 093020 (2015) for more information, particularly Figs. 1 and 6.
  #
  ################################################################################
  #
  # for_aux hydro 5 g 6.0
  ################################################################################
  #
  #  FHI-aims code project
  # Volker Blum, Fritz Haber Institute Berlin, 2010
  #
  #  Suggested "tight" defaults for P atom (to be pasted into control.in file)
  #
  #  Revised Jan 04, 2011, following tests (SiC) done by Lydia Nemec:
  #     d function of tier 2 now enabled by default.
  #
  ################################################################################
    species        P
  #     global species definitions
      nucleus             15
      mass                30.973762
  #
      l_hartree           6
  #
      cut_pot             4.0          2.0  1.0
      basis_dep_cutoff    1e-4
  #
      radial_base         43 7.0
      radial_multiplier   2
      angular_grids       specified
        division   0.2995   50
        division   0.5998  110
        division   0.9240  194
        division   1.0921  302
        division   1.2863  434
  #      division   1.3165  590
  #      division   1.4113  770
  #      division   1.5128  974
  #      division   2.4980 1202
        outer_grid  434
  ################################################################################
  #
  #  Definition of "minimal" basis
  #
  ################################################################################
  #     valence basis states
      valence      3  s   2.
      valence      3  p   3.
  #     ion occupancy
      ion_occ      3  s   1.
      ion_occ      3  p   2.
  ################################################################################
  #
  #  Suggested additional basis functions. For production calculations,
  #  uncomment them one after another (the most important basis functions are
  #  listed first).
  #
  #  Constructed for dimers: 1.625 A, 1.875 A, 2.5 A, 3.25 A, 4.0 A
  #
  ################################################################################
  #  "First tier" - improvements: -726.20 meV to -35.91 meV
       ionic 3 d auto
       ionic 3 p auto
       hydro 4 f 6.2
       hydro 5 g 8.6
       ionic 3 s auto
  #  "Second tier" - improvements: -16.02 meV to -1.71 meV
       hydro 4 d 6.2
  #     hydro 4 p 9.2
  #     hydro 5 f 9.8
  #     hydro 1 s 0.7
  #     hydro 5 g 13.2
  #  "Third tier" - improvements: -1.82 meV to -0.20 meV
  #     hydro 3 p 2.5
  #     hydro 4 d 6.4
  #     hydro 5 f 11.2
  #     hydro 2 s 1.5
  #  "Fourth tier" - improvements: -0.91 meV to -0.17 meV
  #     hydro 3 d 16.8
  #     hydro 5 g 18
  #     hydro 4 p 4.5
  #     hydro 3 s 2.1
  #  Further basis functions that fell out of the optimization - < -0.09 meV
  #     hydro 4 p 10.4
  #     hydro 4 d 17.6
  #     hydro 4 s 11.2
  ################################################################################
  #
  # For methods that use the localized form of the "resolution of identity" for
  # the two-electron Coulomb operator (RI_method LVL), particularly Hartree-Fock and
  # hybrid density functional calculations, the highest accuracy can be obtained by
  # uncommenting the line beginning with "for_aux"  below, thus adding an extra g radial
  # function to the construction of the product basis set for the expansion.
  # See Ref. New J. Phys. 17, 093020 (2015) for more information, particularly Figs. 1 and 6.
  #
  ################################################################################
  #
  # for_aux hydro 5 g 6.0
  ################################################################################
  #
  #  FHI-aims code project
  # Volker Blum, Fritz Haber Institute Berlin, 2009
  #
  #  Suggested "tight" defaults for S atom (to be pasted into control.in file)
  #
  #  Revised Jan 04, 2011, following tests (SiC) done by Lydia Nemec:
  #     d and g functions of tier 2 now enabled by default.
  #
  ################################################################################
    species        S
  #     global species definitions
      nucleus             16
      mass                32.065
  #
      l_hartree           6
  #
      cut_pot             4.0          2.0  1.0
      basis_dep_cutoff    1e-4
  #
      radial_base         44 7.0
      radial_multiplier   2
      angular_grids       specified
        division   0.4665  110
        division   0.5810  194
        division   0.7139  302
        division   0.8274  434
  #      division   0.9105  590
  #      division   1.0975  770
  #      division   1.2028  974
  #      outer_grid  974
        outer_grid  434
  ################################################################################
  #
  #  Definition of "minimal" basis
  #
  ################################################################################
  #     valence basis states
      valence      3  s   2.
      valence      3  p   4.
  #     ion occupancy
      ion_occ      3  s   1.
      ion_occ      3  p   3.
  ################################################################################
  #
  #  Suggested additional basis functions. For production calculations,
  #  uncomment them one after another (the most important basis functions are
  #  listed first).
  #
  #  Constructed for dimers: 1.6 A, 1.9 A, 2.5 A, 3.25 A, 4.0 A
  #
  ################################################################################
  #  "First tier" - improvements: -652.81 meV to -45.53 meV
       ionic 3 d auto
       hydro 2 p 1.8
       hydro 4 f 7
       ionic 3 s auto
  #  "Second tier" - improvements: -30.20 meV to -1.74 meV
       hydro 4 d 6.2
       hydro 5 g 10.8
  #     hydro 4 p 4.9
  #     hydro 5 f 10
  #     hydro 1 s 0.8
  #  "Third tier" - improvements: -1.04 meV to -0.20 meV
  #     hydro 3 d 3.9
  #     hydro 3 d 2.7
  #     hydro 5 g 12
  #     hydro 4 p 10.4
  #     hydro 5 f 12.4
  #     hydro 2 s 1.9
  #  "Fourth tier" - improvements: -0.35 meV to -0.06 meV
  #     hydro 4 d 10.4
  #     hydro 4 p 7.2
  #     hydro 4 d 10
  #     hydro 5 g 19.2
  #     hydro 4 s 12
  
  ################################################################################
  #
  # For methods that use the localized form of the "resolution of identity" for
  # the two-electron Coulomb operator (RI_method LVL), particularly Hartree-Fock and
  # hybrid density functional calculations, the highest accuracy can be obtained by
  # uncommenting the line beginning with "for_aux"  below, thus adding an extra g radial
  # function to the construction of the product basis set for the expansion.
  # See Ref. New J. Phys. 17, 093020 (2015) for more information, particularly Figs. 1 and 6.
  #
  ################################################################################
  #
  # for_aux hydro 5 g 6.0
  ################################################################################
  #
  #  FHI-aims code project
  # Volker Blum, Fritz Haber Institute Berlin, 2009
  #
  #  Suggested "tight" defaults for Cl atom (to be pasted into control.in file)
  #
  #  Revised Jan 04, 2011, following tests (SiC) done by Lydia Nemec:
  #     d function of tier 2 now enabled by default.
  #
  ################################################################################
    species        Cl
  #     global species definitions
      nucleus             17
      mass                35.453
  #
      l_hartree           6
  #
      cut_pot             4.0          2.0  1.0
      basis_dep_cutoff    1e-4
  #
      radial_base         45 7.0
      radial_multiplier   2
      angular_grids       specified
        division   0.4412  110
        division   0.5489  194
        division   0.6734  302
        division   0.7794  434
  #      division   0.9402  590
  #      division   1.0779  770
  #      division   1.1792  974
  #      outer_grid  974
        outer_grid  434
  ################################################################################
  #
  #  Definition of "minimal" basis
  #
  ################################################################################
  #     valence basis states
      valence      3  s   2.
      valence      3  p   5.
  #     ion occupancy
      ion_occ      3  s   1.
      ion_occ      3  p   4.
  ################################################################################
  #
  #  Suggested additional basis functions. For production calculations,
  #  uncomment them one after another (the most important basis functions are
  #  listed first).
  #
  #  Constructed for dimers: 1.65 A, 2.0 A, 2.5 A, 3.25 A, 4.0 A
  #
  ################################################################################
  #  "First tier" - improvements: -429.57 meV to -15.03 meV
       ionic 3 d auto
       hydro 2 p 1.9
       hydro 4 f 7.4
       ionic 3 s auto
       hydro 5 g 10.4
  #  "Second tier" - improvements: -7.84 meV to -0.48 meV
       hydro 3 d 3.3
  #     hydro 5 f 9.8
  #     hydro 1 s 0.75
  #     hydro 5 g 11.2
  #     hydro 4 p 10.4
  #  "Third tier" - improvements: -1.00 meV to -0.12 meV
  #     hydro 4 d 12.8
  #     hydro 4 f 4.6
  #     hydro 4 d 10.8
  #     hydro 2 s 1.8
  #     hydro 3 p 3
  #  Further functions that fell out - improvements: -0.10 meV and below
  #     hydro 5 f 14.4
  #     hydro 4 s 12.8
  #     hydro 3 d 11.6
  #     hydro 4 s 4.1
  ################################################################################
  #
  # For methods that use the localized form of the "resolution of identity" for
  # the two-electron Coulomb operator (RI_method LVL), particularly Hartree-Fock and
  # hybrid density functional calculations, the highest accuracy can be obtained by
  # uncommenting the line beginning with "for_aux"  below, thus adding an extra g radial
  # function to the construction of the product basis set for the expansion.
  # See Ref. New J. Phys. 17, 093020 (2015) for more information, particularly Figs. 1 and 6.
  #
  ################################################################################
  #
  # for_aux hydro 5 g 6.0
  
  -----------------------------------------------------------------------
  Completed first pass over input file control.in .
  -----------------------------------------------------------------------
  
  
  -----------------------------------------------------------------------
  Parsing geometry.in (first pass over file, find array dimensions only).
  The contents of geometry.in will be repeated verbatim below
  unless switched off by setting 'verbatim_writeout .false.' .
  in the first line of geometry.in .
  -----------------------------------------------------------------------
  
  #=======================================================
  # FHI-aims file: ./data/test_rep/geometry.in.10
  # Created using the Atomic Simulation Environment (ASE)
  # Mon Jul  4 10:30:48 2022
  #=======================================================
  lattice_vector 20.7857995033499989 0.0000000000000000 0.0000000000000000
  lattice_vector 0.0000000000000000 10.3928997516749995 0.0000000000000000
  lattice_vector 0.0000000000000000 0.0000000000000000 10.3928997516749995
  atom 6.9491855626262176 10.0128601423294956 6.8982158625562988 Li
  atom 17.3995073488773997 9.9478084544937193 7.1603318900880728 Li
  atom 7.1248731287827498 0.6247633586488122 3.8309141573398264 Li
  atom 17.4171292848825523 0.3056715847078172 3.7633553663909942 Li
  atom 3.1812113066215568 7.2626799307974323 0.3425860111307324 Li
  atom 13.6270926515201261 6.9395478512580766 0.5166529040572015 Li
  atom 3.1494425154563421 3.7020488367994133 9.9761286013176331 Li
  atom 13.7857866808231293 3.5417459567914746 10.0109310154226225 Li
  atom 10.0661899389544125 3.4459289672789013 3.3275372412011128 Li
  atom 20.6703106295179744 3.3752902340630073 3.2448776807409456 Li
  atom 7.0238579399256293 5.3331725208379002 1.8552694169577393 Li
  atom 16.8777451823600941 6.6995612564926432 1.4418688787110461 Li
  atom 6.5188684607962806 3.9209606956778882 9.1923713805892273 Li
  atom 17.5298279654958655 5.3553337063783379 8.8483299318007482 Li
  atom 3.6338303009681381 1.1475144761815848 3.8384291774211499 Li
  atom 14.0638185838951806 1.3173312760978886 4.0303777941583974 Li
  atom 0.0240881748167567 2.0571572337080046 8.3741388098599678 Li
  atom 10.7147113382504600 1.5274714943195795 8.2615994278877380 Li
  atom 0.4167251457276949 7.1307357186529741 3.3091360827241170 Li
  atom 10.4412616783572663 7.2524417720126033 2.9459732696260197 Li
  atom 10.3351699214938044 8.2631880181063657 8.3677211176977195 Li
  atom 20.5095301631170273 7.8022509528223578 7.9608629656151146 Li
  atom 1.5708635529527712 10.0077575318292684 1.8696575591986508 Li
  atom 12.2884952390148161 9.9939724958755036 1.6679744006572166 Li
  atom 2.1389640737016924 0.0937473986947978 8.6216005238578024 Li
  atom 13.7939052889718674 10.2055836270317641 7.1326116199211240 Li
  atom 3.2520426172588786 8.5266487195530765 5.1961413248506432 Li
  atom 12.2209613115958291 7.3107302089852757 5.0843957171780714 Li
  atom 8.5895196309221529 6.9867971472385211 5.4753979911096664 Li
  atom 18.5391085806417379 7.1350127164657726 5.7039350206630584 Li
  atom 9.0480600100281663 3.9618500109214230 6.3772610948237016 Li
  atom 18.6570579008827089 3.4157149201324093 5.2173646325204661 Li
  atom 5.4598312729569232 6.8048413146434781 8.6226109953512147 Li
  atom 15.6439348126412252 7.2389155547733592 8.5601318575213714 Li
  atom 5.2036578689818276 3.2182382991497911 1.9066275625916902 Li
  atom 15.9081573727885921 3.6995047586576209 1.8905040584393609 Li
  atom 1.7976646882714056 4.8379868770315930 6.7329798146227526 Li
  atom 12.2925199912379863 4.7448922029891882 6.7302981630385919 Li
  atom 3.2985667316238629 5.5709763624601445 2.4090733110260754 Li
  atom 12.5471058113628384 5.3500801102012359 3.0864766794974656 Li
  atom 8.4311517897861545 1.6251319208811574 0.3043384396599099 Li
  atom 18.7618196566788811 1.8241458652841815 0.4789631850467628 Li
  atom 8.2418622636536103 8.5657513102432787 10.2787756731832243 Li
  atom 18.7787310648443615 8.7388891379450531 10.2178642441703662 Li
  atom 4.8046005626926558 1.8472627918695015 6.7188026939519521 Li
  atom 15.4740680999316886 2.0850330456785833 6.9869810555180969 Li
  atom 5.1039841521851290 8.5270614663142279 3.2519911308223537 Li
  atom 14.9314080248658172 8.3928813105490843 4.1129458002453676 Li
  atom 0.0029670759161317 0.1432029874222230 10.1794297816617956 Cl
  atom 10.1727258939445537 10.2077891741702977 10.1112845557452893 Cl
  atom 20.5839979346950379 5.1360748506860503 5.1061784385201312 Cl
  atom 2.4533833897028940 2.5210416954220323 7.8419974500413643 Cl
  atom 13.0211479294233463 2.4710965057739420 7.7822365400515610 Cl
  atom 7.8383747426646337 7.8386418632053250 7.8809558686457475 Cl
  atom 7.6589191365041627 2.8032846745163753 2.4222159103744390 Cl
  atom 18.2214584567091435 2.6468806776636207 2.8117508639402420 Cl
  atom 20.7155848636929534 10.3888068134542433 5.2564359298958241 P
  atom 10.2919643019700775 0.0411013521210955 5.0656653721219458 P
  atom 5.1667700843674123 0.0818814000319295 0.0274452334819606 P
  atom 15.5688143074951526 0.0842959582909215 0.1559111768594364 P
  atom 0.0164090968302871 5.2465325836459238 0.0969968724034424 P
  atom 10.3870238565731565 5.0769183951410062 10.2569401672734326 P
  atom 5.2030163821142521 5.1522968257906525 5.3156660324150256 P
  atom 15.5441405867120537 5.2651712489186862 5.2613238690892805 P
  atom 1.2286318486154231 9.2491015398743048 6.5609246322194501 S
  atom 11.5401922461288571 9.3123008656747359 6.4437905319291326 S
  atom 8.9872823840845797 1.3086386510777004 6.2391090754305596 S
  atom 19.4108832545216146 1.2562137375349092 6.4323207729069631 S
  atom 8.9754271113980924 9.1004467051143969 4.0024007237464261 S
  atom 19.4993572009541900 9.0296683920752621 4.1182515504663906 S
  atom 1.0789526605448743 1.2226553478718816 3.8909639856024367 S
  atom 11.4409615439984211 1.2143402248978035 3.6917852036861909 S
  atom 6.3427492414160112 1.2819828025008448 9.0431792410060154 S
  atom 16.8091033293957679 1.2255318683806005 9.2068615794033768 S
  atom 6.5475732028282945 9.5803844997182672 1.4099207975484072 S
  atom 16.8819582862003230 9.3779292695977912 1.4909968580043629 S
  atom 4.1217704250377869 9.0411012213634407 9.1963160361104368 S
  atom 14.2027549940523095 9.1844290475759554 9.4791443064037875 S
  atom 3.7032450144133695 1.3134875458660564 1.0581134543736490 S
  atom 14.3502638278047119 1.4537855849994770 1.3163594458553651 S
  atom 9.0932356148417597 6.4208340318823840 0.9715789657017980 S
  atom 19.6676217755011571 6.6500806128142784 1.2630411236311199 S
  atom 1.3360742721118009 6.2277171324807998 9.0713075826305651 S
  atom 11.6938474621357837 6.1971413255012600 8.9819081566734411 S
  atom 9.1845438678345435 3.6754594745928140 9.0784225140917023 S
  atom 19.4888649644597578 3.8873349997675763 9.4391374073774159 S
  atom 1.3243376690696247 4.0982294418311627 1.3780441127553689 S
  atom 11.5629257259385110 3.8667403187952547 1.1893068119981771 S
  atom 6.4473700943740289 6.4158254498002600 4.0943828987817241 S
  atom 16.7859328486981525 6.5112579582282164 4.0272289741708320 S
  atom 6.4360944119089902 3.9189555932819431 6.5809902304560239 S
  atom 16.7902934878660410 4.1537821215920658 6.6254701843791350 S
  atom 3.9267291535220257 3.8579515900358512 4.1268899080714299 S
  atom 14.3899507966491491 3.9256395240606792 4.0358759390992116 S
  atom 3.9114281802266944 6.3510109822172582 6.5600265992106692 S
  atom 14.2272746778499179 6.5025434490474332 6.4448566444585085 S
  atom 18.0978865918720011 7.7277676855442161 8.0562031073341842 S
  atom 2.7033651171614443 7.9426679853793001 2.7178290153891682 S
  atom 12.8526277016550043 7.7988359460175687 2.7326268461746173 S
  atom 10.5102974816825743 5.3765536987121818 4.9415529587375975 S
  atom 5.1595206918980443 10.2821175068419546 5.1865303028967285 S
  atom 15.5767722156534312 0.0771424522471400 5.4618249727773085 S
  atom 5.0345291687225000 5.2264788682613919 0.2970457369193279 S
  atom 15.5118039030876833 5.3350428375884569 10.3923216517036909 S
  
  -----------------------------------------------------------------------
  Completed first pass over input file geometry.in .
  -----------------------------------------------------------------------
  

  Basic array size parameters:
  | Number of species                 :        4
  | Number of atoms                   :      104
  | Number of lattice vectors         :        3
  | Max. basis fn. angular momentum   :        4
  | Max. atomic/ionic basis occupied n:        3
  | Max. number of basis fn. types    :        3
  | Max. radial fns per species/type  :        8
  | Max. logarithmic grid size        :     1362
  | Max. radial integration grid size :       91
  | Max. angular integration grid size:      434
  | Max. angular grid division number :        8
  | Radial grid for Hartree potential :     1362
  | Number of spin channels           :        1

------------------------------------------------------------
          Reading file control.in.
------------------------------------------------------------
  XC: Using PBE gradient-corrected functionals.
  Convergence accuracy of total energy:  0.1000E-05
  Convergence accuracy of sum of eigenvalues:  0.1000E-02
  Convergence accuracy of self-consistent charge density:  0.1000E-05
  Convergence accuracy of forces:  0.1000E-03
  Friction is calculated at temperature of   0.3000E+03 K
  Found k-point grid:         1         2         2
 
  Reading configuration options for species Li                  .
  | Found nuclear charge :   3.0000
  | Found atomic mass :    6.94100000000000      amu
  | Found l_max for Hartree potential  :   6
  | Found cutoff potl. onset [A], width [A], scale factor :    5.00000    2.00000    1.00000
  | Threshold for basis-dependent cutoff potential is   0.100000E-03
  | Found data for basic radial integration grid :    29 points, outermost radius =    7.000 A
  | Found multiplier for basic radial grid :   2
  | Found angular grid specification: user-specified.
  | Specified grid contains     5 separate shells.
  | Check grid settings after all constraints further below.
  | Found free-atom valence shell :  2 s   1.000
  | Found free-ion valence shell :  1 s   2.000
  | Found hydrogenic basis function :  2 p   1.600
  | Found hydrogenic basis function :  2 s   2.000
  | Found hydrogenic basis function :  3 d   2.600
  | Found hydrogenic basis function :  3 p   4.600
  | Found hydrogenic basis function :  2 p   1.800
  | Found hydrogenic basis function :  3 s   6.200
  | Found hydrogenic basis function :  4 d   4.700
  | Found hydrogenic basis function :  4 f   4.100
  Species Li                  : Missing cutoff potential type.
  Defaulting to exp(1/x)/(1-x)^2 type cutoff potential.
  Species Li: No 'logarithmic' tag. Using default grid for free atom:
  | Default logarithmic grid data [bohr] : 0.1000E-03 0.1000E+03 0.1012E+01
  Species Li: On-site basis accuracy parameter (for Gram-Schmidt orthonormalisation) not specified.
  Using default value basis_acc =  0.1000000E-03.
  Species Li                  : Using default innermost maximum threshold i_radial=  2 for radial functions.
  Species Li                  : Default cutoff onset for free atom density etc. : 0.50000000E+01 AA.
  Species Li                  : Basic radial grid will be enhanced according to radial_multiplier =   2, to contain    59 grid points.
 
  Reading configuration options for species P                   .
  | Found nuclear charge :  15.0000
  | Found atomic mass :    30.9737620000000      amu
  | Found l_max for Hartree potential  :   6
  | Found cutoff potl. onset [A], width [A], scale factor :    4.00000    2.00000    1.00000
  | Threshold for basis-dependent cutoff potential is   0.100000E-03
  | Found data for basic radial integration grid :    43 points, outermost radius =    7.000 A
  | Found multiplier for basic radial grid :   2
  | Found angular grid specification: user-specified.
  | Specified grid contains     6 separate shells.
  | Check grid settings after all constraints further below.
  | Found free-atom valence shell :  3 s   2.000
  | Found free-atom valence shell :  3 p   3.000
  | Found free-ion valence shell :  3 s   1.000
  | Found free-ion valence shell :  3 p   2.000
  | Found ionic basis function :  3 d , default cutoff radius.
  | Found ionic basis function :  3 p , default cutoff radius.
  | Found hydrogenic basis function :  4 f   6.200
  | Found hydrogenic basis function :  5 g   8.600
  | Found ionic basis function :  3 s , default cutoff radius.
  | Found hydrogenic basis function :  4 d   6.200
  Species P                   : Missing cutoff potential type.
  Defaulting to exp(1/x)/(1-x)^2 type cutoff potential.
  Species P : No 'logarithmic' tag. Using default grid for free atom:
  | Default logarithmic grid data [bohr] : 0.1000E-03 0.1000E+03 0.1012E+01
  | Will include ionic basis functions of  2.0-fold positive P                    ion.
  Species P : On-site basis accuracy parameter (for Gram-Schmidt orthonormalisation) not specified.
  Using default value basis_acc =  0.1000000E-03.
  Species P                   : Using default innermost maximum threshold i_radial=  2 for radial functions.
  Species P                   : Default cutoff onset for free atom density etc. : 0.40000000E+01 AA.
  Species P                   : Basic radial grid will be enhanced according to radial_multiplier =   2, to contain    87 grid points.
 
  Reading configuration options for species S                   .
  | Found nuclear charge :  16.0000
  | Found atomic mass :    32.0650000000000      amu
  | Found l_max for Hartree potential  :   6
  | Found cutoff potl. onset [A], width [A], scale factor :    4.00000    2.00000    1.00000
  | Threshold for basis-dependent cutoff potential is   0.100000E-03
  | Found data for basic radial integration grid :    44 points, outermost radius =    7.000 A
  | Found multiplier for basic radial grid :   2
  | Found angular grid specification: user-specified.
  | Specified grid contains     5 separate shells.
  | Check grid settings after all constraints further below.
  | Found free-atom valence shell :  3 s   2.000
  | Found free-atom valence shell :  3 p   4.000
  | Found free-ion valence shell :  3 s   1.000
  | Found free-ion valence shell :  3 p   3.000
  | Found ionic basis function :  3 d , default cutoff radius.
  | Found hydrogenic basis function :  2 p   1.800
  | Found hydrogenic basis function :  4 f   7.000
  | Found ionic basis function :  3 s , default cutoff radius.
  | Found hydrogenic basis function :  4 d   6.200
  | Found hydrogenic basis function :  5 g  10.800
  Species S                   : Missing cutoff potential type.
  Defaulting to exp(1/x)/(1-x)^2 type cutoff potential.
  Species S : No 'logarithmic' tag. Using default grid for free atom:
  | Default logarithmic grid data [bohr] : 0.1000E-03 0.1000E+03 0.1012E+01
  | Will include ionic basis functions of  2.0-fold positive S                    ion.
  Species S : On-site basis accuracy parameter (for Gram-Schmidt orthonormalisation) not specified.
  Using default value basis_acc =  0.1000000E-03.
  Species S                   : Using default innermost maximum threshold i_radial=  2 for radial functions.
  Species S                   : Default cutoff onset for free atom density etc. : 0.40000000E+01 AA.
  Species S                   : Basic radial grid will be enhanced according to radial_multiplier =   2, to contain    89 grid points.
 
  Reading configuration options for species Cl                  .
  | Found nuclear charge :  17.0000
  | Found atomic mass :    35.4530000000000      amu
  | Found l_max for Hartree potential  :   6
  | Found cutoff potl. onset [A], width [A], scale factor :    4.00000    2.00000    1.00000
  | Threshold for basis-dependent cutoff potential is   0.100000E-03
  | Found data for basic radial integration grid :    45 points, outermost radius =    7.000 A
  | Found multiplier for basic radial grid :   2
  | Found angular grid specification: user-specified.
  | Specified grid contains     5 separate shells.
  | Check grid settings after all constraints further below.
  | Found free-atom valence shell :  3 s   2.000
  | Found free-atom valence shell :  3 p   5.000
  | Found free-ion valence shell :  3 s   1.000
  | Found free-ion valence shell :  3 p   4.000
  | Found ionic basis function :  3 d , default cutoff radius.
  | Found hydrogenic basis function :  2 p   1.900
  | Found hydrogenic basis function :  4 f   7.400
  | Found ionic basis function :  3 s , default cutoff radius.
  | Found hydrogenic basis function :  5 g  10.400
  | Found hydrogenic basis function :  3 d   3.300
  Species Cl                  : Missing cutoff potential type.
  Defaulting to exp(1/x)/(1-x)^2 type cutoff potential.
  Species Cl: No 'logarithmic' tag. Using default grid for free atom:
  | Default logarithmic grid data [bohr] : 0.1000E-03 0.1000E+03 0.1012E+01
  | Will include ionic basis functions of  2.0-fold positive Cl                   ion.
  Species Cl: On-site basis accuracy parameter (for Gram-Schmidt orthonormalisation) not specified.
  Using default value basis_acc =  0.1000000E-03.
  Species Cl                  : Using default innermost maximum threshold i_radial=  2 for radial functions.
  Species Cl                  : Default cutoff onset for free atom density etc. : 0.40000000E+01 AA.
  Species Cl                  : Basic radial grid will be enhanced according to radial_multiplier =   2, to contain    91 grid points.
 
  Finished reading input file 'control.in'. Consistency checks are next.
 
  MPI_IN_PLACE appears to work with this MPI implementation.
  | Keeping use_mpi_in_place .true. (see manual).
  Target number of points in a grid batch is not set. Defaulting to  100
  Method for grid partitioning is not set. Defaulting to parallel hash+maxmin partitioning.
  Batch size limit is not set. Defaulting to    200
  By default, will store active basis functions for each batch.
  If in need of memory, prune_basis_once .false. can be used to disable this option.
  communication_type for Hartree potential was not specified.
  Defaulting to calc_hartree .
  Defaulting to Pulay charge density mixer.
  Pulay mixer: Number of relevant iterations not set.
  Defaulting to    8 iterations.
  Pulay mixer: Number of initial linear mixing iterations not set.
  Defaulting to    0 iterations.
  Work space size for distributed Hartree potential not set.
  Defaulting to   0.200000E+03 MB.
  Mixing parameter for charge density mixing has not been set.
  Using default: charge_mix_param =     0.0500.
  The mixing parameter will be adjusted in iteration number     2 of the first full s.c.f. cycle only.
  Algorithm-dependent basis array size parameters:
  | n_max_pulay                         :        8
  Maximum number of self-consistency iterations not provided.
  Presetting  1000 iterations.
  Presetting      1001 iterations before the initial mixing cycle
  is restarted anyway using the sc_init_iter criterion / keyword.
  Presetting a factor      1.000 between actual scf density residual
  and density convergence criterion sc_accuracy_rho below which sc_init_iter
  takes no effect.
  Geometry relaxation not requested: no relaxation will be performed.
  Handling of forces: Unphysical translation and rotation will be removed from forces.
  No accuracy limit for integral partition fn. given. Defaulting to  0.1000E-14.
  No threshold value for u(r) in integrations given. Defaulting to  0.1000E-05.
  No occupation type (smearing scheme) given. Defaulting to Gaussian broadening, width =  0.1000E-01 eV.
  The width will be adjusted in iteration number     2 of the first full s.c.f. cycle only.
  S.C.F. convergence parameters will be adjusted in iteration number     2 of the first full s.c.f. cycle only.
  No accuracy for occupation numbers given. Defaulting to  0.1000E-12.
  No threshold value for occupation numbers given. Defaulting to  0.0000E+00.
  No accuracy for fermi level given. Defaulting to  0.1000E-19.
  Maximum # of iterations to find E_F not set. Defaulting to  200.
  Preferred method for the eigenvalue solver ('KS_method') not specified in 'control.in'.
  Calling BLACS routine to test compilation state
  Since ScaLAPACK support is enabled, defaulting to 'elsi'.
  Will not use alltoall communication since running on < 1024 CPUs.
  Threshold for basis singularities not set.
  Default threshold for basis singularities:  0.1000E-04
  partition_type (choice of integration weights) for integrals was not specified.
  | Using a version of the partition function of Stratmann and coworkers ('stratmann_smoother').
  | At each grid point, the set of atoms used to build the partition table is smoothly restricted to
  | only those atoms whose free-atom density would be non-zero at that grid point.
  Partitioning for Hartree potential was not defined. Using partition_type for integrals.
  | Adjusted default value of keyword multip_moments_threshold to:       0.10000000E-11
  | This value may affect high angular momentum components of the Hartree potential in periodic systems.
  Spin handling was not defined in control.in. Defaulting to unpolarized case.
  Angular momentum expansion for Kerker preconditioner not set explicitly.
  | Using default value of   0
  No explicit requirement for turning off preconditioner.
  | By default, it will be turned off when the charge convergence reaches
  | sc_accuracy_rho  =   0.100000E-05
  | sc_accuracy_eev  =   0.100000E-02
  | sc_accuracy_etot =   0.100000E-05
  No special mixing parameter while Kerker preconditioner is on.
  Using default: charge_mix_param =     0.0500.
  No q(lm)/r^(l+1) cutoff set for long-range Hartree potential.
  | Using default value of  0.100000E-09 .
  | Verify using the multipole_threshold keyword.
  Defaulting to new monopole extrapolation.
  Density update method: automatic selection selected.
  Using density matrix based charge density update.
  Using density matrix based charge density update.
  Using packed matrix style: index .
  Defaulting to use time-reversal symmetry for k-point grid.
------------------------------------------------------------


------------------------------------------------------------
          Reading geometry description geometry.in.
------------------------------------------------------------
 * Warning! You did not set the 'relativistic' flag in input file 'control.in'.
 * Since you are not attempting to treat any elements beyond Ca(Z=20), FHI-aims
 * will default to 'relativistic none'.
 * You must ensure that this is really what you want!!
 * For example, DO NOT compute total-energy differences between results from
 * different settings of the 'relativistic' flag.
  Input structure read successfully.
  The structure contains      104 atoms,  and a total of       1040.000 electrons.

  Input geometry:
  | Unit cell:
  |       20.78579950        0.00000000        0.00000000
  |        0.00000000       10.39289975        0.00000000
  |        0.00000000        0.00000000       10.39289975
  | Atomic structure:
  |       Atom                x [A]            y [A]            z [A]
  |    1: Species Li            6.94918556       10.01286014        6.89821586
  |    2: Species Li           17.39950735        9.94780845        7.16033189
  |    3: Species Li            7.12487313        0.62476336        3.83091416
  |    4: Species Li           17.41712928        0.30567158        3.76335537
  |    5: Species Li            3.18121131        7.26267993        0.34258601
  |    6: Species Li           13.62709265        6.93954785        0.51665290
  |    7: Species Li            3.14944252        3.70204884        9.97612860
  |    8: Species Li           13.78578668        3.54174596       10.01093102
  |    9: Species Li           10.06618994        3.44592897        3.32753724
  |   10: Species Li           20.67031063        3.37529023        3.24487768
  |   11: Species Li            7.02385794        5.33317252        1.85526942
  |   12: Species Li           16.87774518        6.69956126        1.44186888
  |   13: Species Li            6.51886846        3.92096070        9.19237138
  |   14: Species Li           17.52982797        5.35533371        8.84832993
  |   15: Species Li            3.63383030        1.14751448        3.83842918
  |   16: Species Li           14.06381858        1.31733128        4.03037779
  |   17: Species Li            0.02408817        2.05715723        8.37413881
  |   18: Species Li           10.71471134        1.52747149        8.26159943
  |   19: Species Li            0.41672515        7.13073572        3.30913608
  |   20: Species Li           10.44126168        7.25244177        2.94597327
  |   21: Species Li           10.33516992        8.26318802        8.36772112
  |   22: Species Li           20.50953016        7.80225095        7.96086297
  |   23: Species Li            1.57086355       10.00775753        1.86965756
  |   24: Species Li           12.28849524        9.99397250        1.66797440
  |   25: Species Li            2.13896407        0.09374740        8.62160052
  |   26: Species Li           13.79390529       10.20558363        7.13261162
  |   27: Species Li            3.25204262        8.52664872        5.19614132
  |   28: Species Li           12.22096131        7.31073021        5.08439572
  |   29: Species Li            8.58951963        6.98679715        5.47539799
  |   30: Species Li           18.53910858        7.13501272        5.70393502
  |   31: Species Li            9.04806001        3.96185001        6.37726109
  |   32: Species Li           18.65705790        3.41571492        5.21736463
  |   33: Species Li            5.45983127        6.80484131        8.62261100
  |   34: Species Li           15.64393481        7.23891555        8.56013186
  |   35: Species Li            5.20365787        3.21823830        1.90662756
  |   36: Species Li           15.90815737        3.69950476        1.89050406
  |   37: Species Li            1.79766469        4.83798688        6.73297981
  |   38: Species Li           12.29251999        4.74489220        6.73029816
  |   39: Species Li            3.29856673        5.57097636        2.40907331
  |   40: Species Li           12.54710581        5.35008011        3.08647668
  |   41: Species Li            8.43115179        1.62513192        0.30433844
  |   42: Species Li           18.76181966        1.82414587        0.47896319
  |   43: Species Li            8.24186226        8.56575131       10.27877567
  |   44: Species Li           18.77873106        8.73888914       10.21786424
  |   45: Species Li            4.80460056        1.84726279        6.71880269
  |   46: Species Li           15.47406810        2.08503305        6.98698106
  |   47: Species Li            5.10398415        8.52706147        3.25199113
  |   48: Species Li           14.93140802        8.39288131        4.11294580
  |   49: Species Cl            0.00296708        0.14320299       10.17942978
  |   50: Species Cl           10.17272589       10.20778917       10.11128456
  |   51: Species Cl           20.58399793        5.13607485        5.10617844
  |   52: Species Cl            2.45338339        2.52104170        7.84199745
  |   53: Species Cl           13.02114793        2.47109651        7.78223654
  |   54: Species Cl            7.83837474        7.83864186        7.88095587
  |   55: Species Cl            7.65891914        2.80328467        2.42221591
  |   56: Species Cl           18.22145846        2.64688068        2.81175086
  |   57: Species P            20.71558486       10.38880681        5.25643593
  |   58: Species P            10.29196430        0.04110135        5.06566537
  |   59: Species P             5.16677008        0.08188140        0.02744523
  |   60: Species P            15.56881431        0.08429596        0.15591118
  |   61: Species P             0.01640910        5.24653258        0.09699687
  |   62: Species P            10.38702386        5.07691840       10.25694017
  |   63: Species P             5.20301638        5.15229683        5.31566603
  |   64: Species P            15.54414059        5.26517125        5.26132387
  |   65: Species S             1.22863185        9.24910154        6.56092463
  |   66: Species S            11.54019225        9.31230087        6.44379053
  |   67: Species S             8.98728238        1.30863865        6.23910908
  |   68: Species S            19.41088325        1.25621374        6.43232077
  |   69: Species S             8.97542711        9.10044671        4.00240072
  |   70: Species S            19.49935720        9.02966839        4.11825155
  |   71: Species S             1.07895266        1.22265535        3.89096399
  |   72: Species S            11.44096154        1.21434022        3.69178520
  |   73: Species S             6.34274924        1.28198280        9.04317924
  |   74: Species S            16.80910333        1.22553187        9.20686158
  |   75: Species S             6.54757320        9.58038450        1.40992080
  |   76: Species S            16.88195829        9.37792927        1.49099686
  |   77: Species S             4.12177043        9.04110122        9.19631604
  |   78: Species S            14.20275499        9.18442905        9.47914431
  |   79: Species S             3.70324501        1.31348755        1.05811345
  |   80: Species S            14.35026383        1.45378558        1.31635945
  |   81: Species S             9.09323561        6.42083403        0.97157897
  |   82: Species S            19.66762178        6.65008061        1.26304112
  |   83: Species S             1.33607427        6.22771713        9.07130758
  |   84: Species S            11.69384746        6.19714133        8.98190816
  |   85: Species S             9.18454387        3.67545947        9.07842251
  |   86: Species S            19.48886496        3.88733500        9.43913741
  |   87: Species S             1.32433767        4.09822944        1.37804411
  |   88: Species S            11.56292573        3.86674032        1.18930681
  |   89: Species S             6.44737009        6.41582545        4.09438290
  |   90: Species S            16.78593285        6.51125796        4.02722897
  |   91: Species S             6.43609441        3.91895559        6.58099023
  |   92: Species S            16.79029349        4.15378212        6.62547018
  |   93: Species S             3.92672915        3.85795159        4.12688991
  |   94: Species S            14.38995080        3.92563952        4.03587594
  |   95: Species S             3.91142818        6.35101098        6.56002660
  |   96: Species S            14.22727468        6.50254345        6.44485664
  |   97: Species S            18.09788659        7.72776769        8.05620311
  |   98: Species S             2.70336512        7.94266799        2.71782902
  |   99: Species S            12.85262770        7.79883595        2.73262685
  |  100: Species S            10.51029748        5.37655370        4.94155296
  |  101: Species S             5.15952069       10.28211751        5.18653030
  |  102: Species S            15.57677222        0.07714245        5.46182497
  |  103: Species S             5.03452917        5.22647887        0.29704574
  |  104: Species S            15.51180390        5.33504284       10.39232165

  Lattice parameters for 3D lattice (in Angstroms) :    20.785800   10.392900   10.392900
  Angle(s) between unit vectors (in degrees)      :    90.000000   90.000000   90.000000

  |

  | The smallest distance between any two atoms is         2.14108170 AA.
  |
  | The first atom of this pair is atom number                     72 .
  | The second atom of this pair is atom number                    58 .
  | Wigner-Seitz cell of the first atom image           1     0     0 .
  | (The Wigner-Seitz cell of the second atom is 0 0 0  by definition.)

  Symmetry information by spglib:
  | Precision set to  0.1E-04
  | Number of Operations  : 1
  | Space group           : 1
  | International         : P1
  | Schoenflies           : C1^1

  Quantities derived from the lattice vectors:
  | Reciprocal lattice vector 1:  0.302283  0.000000  0.000000
  | Reciprocal lattice vector 2:  0.000000  0.604565  0.000000
  | Reciprocal lattice vector 3:  0.000000  0.000000  0.604565
  | Unit cell volume                               :   0.224512E+04  A^3

  Range separation radius for Ewald summation (hartree_convergence_parameter):      3.99751606 bohr.

  Fractional coordinates:
                         L1                L2                L3
       atom_frac         0.33432371        0.96343276        0.66374313  Li
       atom_frac         0.83708627        0.95717352        0.68896382  Li
       atom_frac         0.34277600        0.06011444        0.36860879  Li
       atom_frac         0.83793406        0.02941158        0.36210831  Li
       atom_frac         0.15304734        0.69881170        0.03296347  Li
       atom_frac         0.65559627        0.66772008        0.04971210  Li
       atom_frac         0.15151895        0.35620942        0.95989847  Li
       atom_frac         0.66323100        0.34078516        0.96324715  Li
       atom_frac         0.48428207        0.33156569        0.32017409  Li
       atom_frac         0.99444386        0.32476886        0.31222063  Li
       atom_frac         0.33791618        0.51315539        0.17851316  Li
       atom_frac         0.81198441        0.64462868        0.13873596  Li
       atom_frac         0.31362125        0.37727302        0.88448572  Li
       atom_frac         0.84335596        0.51528773        0.85138221  Li
       atom_frac         0.17482273        0.11041331        0.36933188  Li
       atom_frac         0.67660705        0.12675301        0.38780108  Li
       atom_frac         0.00115888        0.19793872        0.80575576  Li
       atom_frac         0.51548228        0.14697260        0.79492727  Li
       atom_frac         0.02004855        0.68611609        0.31840354  Li
       atom_frac         0.50232668        0.69782659        0.28346018  Li
       atom_frac         0.49722263        0.79508012        0.80513825  Li
       atom_frac         0.98670875        0.75072897        0.76599055  Li
       atom_frac         0.07557388        0.96294179        0.17989758  Li
       atom_frac         0.59119666        0.96161540        0.16049172  Li
       atom_frac         0.10290507        0.00902033        0.82956641  Li
       atom_frac         0.66362159        0.98197653        0.68629659  Li
       atom_frac         0.15645502        0.82043019        0.49997031  Li
       atom_frac         0.58794762        0.70343507        0.48921820  Li
       atom_frac         0.41323980        0.67226639        0.52684026  Li
       atom_frac         0.89191222        0.68652762        0.54882999  Li
       atom_frac         0.43530007        0.38120737        0.61361711  Li
       atom_frac         0.89758673        0.32865851        0.50201241  Li
       atom_frac         0.26267122        0.65475868        0.82966364  Li
       atom_frac         0.75262608        0.69652510        0.82365192  Li
       atom_frac         0.25034677        0.30965740        0.18345482  Li
       atom_frac         0.76533777        0.35596463        0.18190342  Li
       atom_frac         0.08648523        0.46550886        0.64784420  Li
       atom_frac         0.59139029        0.45655133        0.64758617  Li
       atom_frac         0.15869328        0.53603677        0.23179992  Li
       atom_frac         0.60363835        0.51478223        0.29697936  Li
       atom_frac         0.40562076        0.15636944        0.02928330  Li
       atom_frac         0.90262680        0.17551847        0.04608562  Li
       atom_frac         0.39651408        0.82419262        0.98901903  Li
       atom_frac         0.90344040        0.84085186        0.98315816  Li
       atom_frac         0.23114822        0.17774277        0.64648008  Li
       atom_frac         0.74445383        0.20062091        0.67228408  Li
       atom_frac         0.24555150        0.82046990        0.31290508  Li
       atom_frac         0.71834658        0.80755915        0.39574574  Li
       atom_frac         0.00014275        0.01377893        0.97946002  Cl
       atom_frac         0.48940749        0.98218875        0.97290312  Cl
       atom_frac         0.99029137        0.49419074        0.49131412  Cl
       atom_frac         0.11803171        0.24257346        0.75455336  Cl
       atom_frac         0.62644441        0.23776776        0.74880320  Cl
       atom_frac         0.37710239        0.75423049        0.75830192  Cl
       atom_frac         0.36846883        0.26973075        0.23306449  Cl
       atom_frac         0.87663015        0.25468163        0.27054537  Cl
       atom_frac         0.99662199        0.99960618        0.50577183  P
       atom_frac         0.49514402        0.00395475        0.48741598  P
       atom_frac         0.24857211        0.00787859        0.00264077  P
       atom_frac         0.74901205        0.00811092        0.01500170  P
       atom_frac         0.00078944        0.50481893        0.00933299  P
       atom_frac         0.49971731        0.48849874        0.98691803  P
       atom_frac         0.25031591        0.49575161        0.51147092  P
       atom_frac         0.74782500        0.50661234        0.50624215  P
       atom_frac         0.05910919        0.88994427        0.63128913  S
       atom_frac         0.55519598        0.89602528        0.62001854  S
       atom_frac         0.43237607        0.12591660        0.60032419  S
       atom_frac         0.93385310        0.12087230        0.61891493  S
       atom_frac         0.43180572        0.87564077        0.38510914  S
       atom_frac         0.93810956        0.86883051        0.39625626  S
       atom_frac         0.05190816        0.11764333        0.37438675  S
       atom_frac         0.55042201        0.11684325        0.35522186  S
       atom_frac         0.30514820        0.12335179        0.87013052  S
       atom_frac         0.80868207        0.11792011        0.88587996  S
       atom_frac         0.31500223        0.92182016        0.13566193  S
       atom_frac         0.81218710        0.90234001        0.14346303  S
       atom_frac         0.19829742        0.86993057        0.88486527  S
       atom_frac         0.68329125        0.88372151        0.91207887  S
       atom_frac         0.17816226        0.12638316        0.10181119  S
       atom_frac         0.69038787        0.13988258        0.12665950  S
       atom_frac         0.43747346        0.61780968        0.09348488  S
       atom_frac         0.94620473        0.63986768        0.12152923  S
       atom_frac         0.06427822        0.59922806        0.87283701  S
       atom_frac         0.56258829        0.59628607        0.86423504  S
       atom_frac         0.44186628        0.35365101        0.87352161  S
       atom_frac         0.93760478        0.37403757        0.90822943  S
       atom_frac         0.06371358        0.39432974        0.13259477  S
       atom_frac         0.55628968        0.37205596        0.11443455  S
       atom_frac         0.31018148        0.61732775        0.39395963  S
       atom_frac         0.80756734        0.62651022        0.38749811  S
       atom_frac         0.30963901        0.37708009        0.63321983  S
       atom_frac         0.80777713        0.39967499        0.63749967  S
       atom_frac         0.18891403        0.37121031        0.39708744  S
       atom_frac         0.69229720        0.37772322        0.38833011  S
       atom_frac         0.18817790        0.61109133        0.63120272  S
       atom_frac         0.68447089        0.62567172        0.62012112  S
       atom_frac         0.87068513        0.74356223        0.77516413  S
       atom_frac         0.13005827        0.76423983        0.26150825  S
       atom_frac         0.61833694        0.75040038        0.26293209  S
       atom_frac         0.50564798        0.51732951        0.47547394  S
       atom_frac         0.24822335        0.98934058        0.49904554  S
       atom_frac         0.74939490        0.00742261        0.52553427  S
       atom_frac         0.24221003        0.50288938        0.02858160  S
       atom_frac         0.74626929        0.51333535        0.99994438  S

  Number of empty states per atom not set in control.in - providing a guess from actual geometry.
  | Total number of empty states used during s.c.f. cycle:      240
  If you use a very high smearing, use empty_states (per atom!) in control.in to increase this value.

  Structure-dependent array size parameters: 
  | Maximum number of distinct radial functions  :       43
  | Maximum number of basis functions            :     3624
  | Number of Kohn-Sham states (occupied + empty):      760
------------------------------------------------------------

------------------------------------------------------------
          Preparing all fixed parts of the calculation.
------------------------------------------------------------
  Determining machine precision:
    2.225073858507201E-308
  Setting up grids for atomic and cluster calculations.

  Creating wave function, potential, and density for free atoms.

  Species: Li

  List of occupied orbitals and eigenvalues:
    n    l              occ      energy [Ha]    energy [eV]
    1    0           2.0000        -1.901473       -51.7417
    2    0           1.0000        -0.103132        -2.8064


  Species: P

  List of occupied orbitals and eigenvalues:
    n    l              occ      energy [Ha]    energy [eV]
    1    0           2.0000       -76.356288     -2077.7603
    2    0           2.0000        -6.358286      -173.0178
    3    0           2.0000        -0.509419       -13.8620
    2    1           6.0000        -4.573976      -124.4642
    3    1           3.0000        -0.201560        -5.4847


  Species: S

  List of occupied orbitals and eigenvalues:
    n    l              occ      energy [Ha]    energy [eV]
    1    0           2.0000       -88.108280     -2397.5483
    2    0           2.0000        -7.732485      -210.4116
    3    0           2.0000        -0.629532       -17.1304
    2    1           6.0000        -5.750324      -156.4743
    3    1           4.0000        -0.257562        -7.0086


  Species: Cl

  List of occupied orbitals and eigenvalues:
    n    l              occ      energy [Ha]    energy [eV]
    1    0           2.0000      -100.710795     -2740.4802
    2    0           2.0000        -9.222997      -250.9705
    3    0           2.0000        -0.754245       -20.5241
    2    1           6.0000        -7.039872      -191.5647
    3    1           5.0000        -0.316221        -8.6048

  Creating fixed part of basis set: Ionic, confined, hydrogenic.
 
  Li                   hydrogenic:
 
  List of hydrogenic basis orbitals: 
    n    l      effective z      eigenvalue [eV]  inner max. [A]     outer max. [A]     outer radius [A]   
    2    1         1.600000        -8.7048           1.319365           1.319365           6.386418
    2    0         2.000000       -13.6052           0.203259           1.385485           6.232164
    3    2         2.600000       -10.2084           1.835332           1.835332           6.386418
    3    1         4.600000       -31.9883           0.343834           1.385485           5.381805
    2    1         1.800000       -11.0199           1.181903           1.181903           6.386418
    3    0         6.200000       -58.1113           0.062858           1.111823           4.371906
    4    2         4.700000       -18.7772           0.761113           2.401695           6.386418
    4    3         4.100000       -14.2833           2.073992           2.073992           6.386418
 
 
  P                    ion:

  List of free ionic orbitals and eigenvalues:
    n    l      energy [Ha]    energy [eV]
    1    0       -77.297133     -2103.3620
    2    0        -7.273914      -197.9333
    3    0        -1.267536       -34.4914
    2    1        -5.491316      -149.4263
    3    1        -0.913470       -24.8568


  List of ionic basis orbitals and eigenvalues:
    n    l      energy [Ha]    energy [eV]    outer radius [A]
    3    2        -0.458060       -12.4644       5.404780
    3    1        -0.913461       -24.8565       4.724723
    3    0        -1.267529       -34.4912       4.232463

 
  P                    hydrogenic:
 
  List of hydrogenic basis orbitals: 
    n    l      effective z      eigenvalue [eV]  inner max. [A]     outer max. [A]     outer radius [A]   
    4    3         6.200000       -32.6870           1.357793           1.357793           5.339109
    5    4         8.600000       -40.2502           1.534356           1.534356           5.404780
    4    2         6.200000       -32.6848           0.577014           1.820771           5.404780
 
 
  S                    ion:

  List of free ionic orbitals and eigenvalues:
    n    l      energy [Ha]    energy [eV]
    1    0       -89.127201     -2425.2745
    2    0        -8.724378      -237.4024
    3    0        -1.464668       -39.8556
    2    1        -6.744348      -183.5230
    3    1        -1.048520       -28.5317


  List of ionic basis orbitals and eigenvalues:
    n    l      energy [Ha]    energy [eV]    outer radius [A]
    3    2        -0.496514       -13.5108       5.386362
    3    0        -1.464662       -39.8555       3.967934

 
  S                    hydrogenic:
 
  List of hydrogenic basis orbitals: 
    n    l      effective z      eigenvalue [eV]  inner max. [A]     outer max. [A]     outer radius [A]   
    2    1         1.800000       -11.0118           1.168531           1.168531           5.452614
    4    3         7.000000       -41.6672           1.212182           1.212182           5.066981
    4    2         6.200000       -32.6848           0.582121           1.814567           5.386362
    5    4        10.800000       -63.4785           1.227092           1.227092           4.766538
 
 
  Cl                   ion:

  List of free ionic orbitals and eigenvalues:
    n    l      energy [Ha]    energy [eV]
    1    0      -101.807232     -2770.3157
    2    0       -10.290876      -280.0290
    3    0        -1.664625       -45.2967
    2    1        -8.110237      -220.6908
    3    1        -1.183915       -32.2160


  List of ionic basis orbitals and eigenvalues:
    n    l      energy [Ha]    energy [eV]    outer radius [A]
    3    2        -0.529392       -14.4055       5.389057
    3    0        -1.664620       -45.2966       3.780461

 
  Cl                   hydrogenic:
 
  List of hydrogenic basis orbitals: 
    n    l      effective z      eigenvalue [eV]  inner max. [A]     outer max. [A]     outer radius [A]   
    2    1         1.900000       -12.2741           1.113321           1.113321           5.389057
    4    3         7.400000       -46.5653           1.140877           1.140877           4.886961
    5    4        10.400000       -58.8635           1.273568           1.273568           4.886961
    3    2         3.300000       -16.4532           1.439178           1.439178           5.455343
 

  Adding cutoff potential to free-atom effective potential.
  Creating atomic-like basis functions for current effective potential.

  Species Li                  :

  List of atomic basis orbitals and eigenvalues:
    n    l      energy [Ha]    energy [eV]    outer radius [A]
    1    0        -1.901473       -51.7417       4.318785
    2    0        -0.103132        -2.8064       6.464971


  Species P                   :

  List of atomic basis orbitals and eigenvalues:
    n    l      energy [Ha]    energy [eV]    outer radius [A]
    1    0       -76.356288     -2077.7603       0.736837
    2    0        -6.358286      -173.0178       2.532824
    3    0        -0.509419       -13.8620       5.274236
    2    1        -4.573976      -124.4642       2.862183
    3    1        -0.201560        -5.4847       5.404780


  Species S                   :

  List of atomic basis orbitals and eigenvalues:
    n    l      energy [Ha]    energy [eV]    outer radius [A]
    1    0       -88.108280     -2397.5483       0.682391
    2    0        -7.732485      -210.4116       2.317169
    3    0        -0.629532       -17.1304       5.256262
    2    1        -5.750324      -156.4743       2.555240
    3    1        -0.257562        -7.0086       5.386362


  Species Cl                  :

  List of atomic basis orbitals and eigenvalues:
    n    l      energy [Ha]    energy [eV]    outer radius [A]
    1    0      -100.710795     -2740.4802       0.642251
    2    0        -9.222997      -250.9705       2.128190
    3    0        -0.754245       -20.5241       5.194994
    2    1        -7.039872      -191.5647       2.346844
    3    1        -0.316221        -8.6048       5.323577

  Assembling full basis from fixed parts.
  | Species Li :   atomic orbital   1 s accepted.
  | Species Li :    hydro orbital   3 s accepted.
  | Species Li :    hydro orbital   2 s accepted.
  | Species Li :   atomic orbital   2 s accepted.
  | Species Li :    hydro orbital   3 p accepted.
  | Species Li :    hydro orbital   2 p accepted.
  | Species Li :    hydro orbital   2 p accepted.
  | Species Li :    hydro orbital   3 d accepted.
  | Species Li :    hydro orbital   4 d accepted.
  | Species Li :    hydro orbital   4 f accepted.
  | Species P :   atomic orbital   1 s accepted.
  | Species P :   atomic orbital   2 s accepted.
  | Species P :    ionic orbital   3 s accepted.
  | Species P :   atomic orbital   3 s accepted.
  | Species P :   atomic orbital   2 p accepted.
  | Species P :    ionic orbital   3 p accepted.
  | Species P :   atomic orbital   3 p accepted.
  | Species P :    ionic orbital   3 d accepted.
  | Species P :    hydro orbital   4 d accepted.
  | Species P :    hydro orbital   4 f accepted.
  | Species P :    hydro orbital   5 g accepted.
  | Species S :   atomic orbital   1 s accepted.
  | Species S :   atomic orbital   2 s accepted.
  | Species S :    ionic orbital   3 s accepted.
  | Species S :   atomic orbital   3 s accepted.
  | Species S :   atomic orbital   2 p accepted.
  | Species S :   atomic orbital   3 p accepted.
  | Species S :    hydro orbital   2 p accepted.
  | Species S :    ionic orbital   3 d accepted.
  | Species S :    hydro orbital   4 d accepted.
  | Species S :    hydro orbital   4 f accepted.
  | Species S :    hydro orbital   5 g accepted.
  | Species Cl :   atomic orbital   1 s accepted.
  | Species Cl :   atomic orbital   2 s accepted.
  | Species Cl :    ionic orbital   3 s accepted.
  | Species Cl :   atomic orbital   3 s accepted.
  | Species Cl :   atomic orbital   2 p accepted.
  | Species Cl :   atomic orbital   3 p accepted.
  | Species Cl :    hydro orbital   2 p accepted.
  | Species Cl :    ionic orbital   3 d accepted.
  | Species Cl :    hydro orbital   3 d accepted.
  | Species Cl :    hydro orbital   4 f accepted.
  | Species Cl :    hydro orbital   5 g accepted.
 
  Basis size parameters after reduction:
  | Total number of radial functions:       43
  | Total number of basis functions :     3624
 
  Per-task memory consumption for arrays in subroutine allocate_ext:
  |          11.338440MB.
  Testing on-site integration grid accuracy.
  |  Species  Function  <phi|h_atom|phi> (log., in eV)  <phi|h_atom|phi> (rad., in eV)
           1        1                -51.7417001117                -51.7417000312
           1        2                 33.5927188637                 33.5926505054
           1        3                 69.1469416012                 69.1473382425
           1        4                 48.8336153902                 48.8810182289 ***
           1        5                 17.1749490570                 17.1749098864
           1        6                 32.1201183828                 32.1217831653
           1        7                  6.0166019876                  6.0249480535
           1        8                  4.9175332206                  4.9194842525
           1        9                 28.8010599263                 28.8011051086
           1       10                  9.9331480983                  9.9353515081
           2       11              -2077.7602992527              -2077.7602630746
           2       12               -173.0177635265               -173.0177629291
           2       13                -13.5620523038                -13.5620521963
           2       14                  6.3015351439                  6.3015396353
           2       15               -124.4642131574               -124.4642129967
           2       16                 -4.8468074573                 -4.8468065719
           2       17                  5.8113348591                  5.8108493787
           2       18                  5.1218113540                  5.1217878152
           2       19                 22.1386653152                 22.1386624883
           2       20                 19.3047268689                 19.3047231214
           2       21                 30.3235883931                 30.3235836780
           3       22              -2397.5482725833              -2397.5482291499
           3       23               -210.4116306505               -210.4116300246
           3       24                -16.8591546483                -16.8591544436
           3       25                  7.5848976656                  7.5849001027
           3       26               -156.4742745766               -156.4742744285
           3       27                 -7.0089268331                 -7.0089287934
           3       28                  6.8790437028                  6.8789536772
           3       29                  6.0023049431                  6.0023019693
           3       30                 19.5634804122                 19.5634829634
           3       31                 24.6809503130                 24.6809503093
           3       32                 47.5107032033                 47.5107040524
           4       33              -2740.4801671239              -2740.4801157382
           4       34               -250.9705040601               -250.9705032686
           4       35                -20.2716828479                -20.2716826054
           4       36                  9.0161300765                  9.0161279813
           4       37               -191.5646602865               -191.5646600866
           4       38                 -8.6049187754                 -8.6049181478
           4       39                  7.6458046208                  7.6458222053
           4       40                  6.9765726558                  6.9765744583
           4       41                 16.6546700656                 16.6546956458
           4       42                 28.0343243807                 28.0343233726
           4       43                 45.0370063060                 45.0370052039
 * Note: Onsite integrals marked "***" above are less accurate than
 * onsite_accuracy_threshold =    0.03000 eV. Usually, this is harmless.
 * When in doubt, tighten the "radial" and/or "radial_multiplier" flags to check.

  Preparing densities etc. for the partition functions (integrals / Hartree potential).

  Preparations completed.
  max(cpu_time)          :      0.466 s.
  Wall clock time (cpu1) :      0.470 s.
------------------------------------------------------------

------------------------------------------------------------
          Begin self-consistency loop: Initialization.

          Date     :  20220704, Time     :  093735.171
------------------------------------------------------------

  Initializing index lists of integration centers etc. from given atomic structure:
  Mapping all atomic coordinates to central unit cell.

  Initializing the k-points
          Using symmetry for reducing the k-points
  | k-points reduced from:        4 to        4
  | Number of k-points                             :         4
  The eigenvectors in the calculations are REAL.
  | Number of basis functions in the Hamiltonian integrals :     22118
  | Number of basis functions in a single unit cell        :      3624
  | Number of centers in hartree potential         :      2895
  | Number of centers in hartree multipole         :      2069
  | Number of centers in electron density summation:      1669
  | Number of centers in basis integrals           :      1741
  | Number of centers in integrals                 :       742
  | Number of centers in hamiltonian               :      1951
  | Consuming          3 KiB for k_phase.
  | Number of super-cells (origin) [n_cells]                     :         245
  | Number of super-cells (after PM_index) [n_cells]             :          58
  | Number of super-cells in hamiltonian [n_cells_in_hamiltonian]:          58
  | Size of matrix packed + index [n_hamiltonian_matrix_size] :    17494706
  Using simple linear distribution as default method for k-point parallelism.
  * Using 20 tasks for Scalapack Eigenvalue solver.
  Detailed listing of tasks and assigned k-points:
   Task     0 k-point     1 on node047
   Task     1 k-point     1 on node047
   Task     2 k-point     1 on node047
   Task     3 k-point     1 on node047
   Task     4 k-point     1 on node047
   Task     5 k-point     2 on node047
   Task     6 k-point     2 on node047
   Task     7 k-point     2 on node047
   Task     8 k-point     2 on node047
   Task     9 k-point     2 on node047
   Task    10 k-point     3 on node047
   Task    11 k-point     3 on node047
   Task    12 k-point     3 on node047
   Task    13 k-point     3 on node047
   Task    14 k-point     3 on node047
   Task    15 k-point     4 on node047
   Task    16 k-point     4 on node047
   Task    17 k-point     4 on node047
   Task    18 k-point     4 on node047
   Task    19 k-point     4 on node047
  K-point:     1 Tasks:     5 split into      5 X      1 BLACS grid
  Calculating block size based on n_basis =         3624 max_nprow =            5 max_npcol =            1
  ScaLAPACK block size set to:           16
  Allocating       21.338 MB for ovlp
  Allocating       21.338 MB for ham
  Allocating       21.338 MB for eigenvec
  Required Scalapack workspace - INTEGER:            1 REAL:             1
  Partitioning the integration grid into batches with parallel hashing+maxmin method.
  | Number of batches:    20984
  | Maximal batch size:     119
  | Minimal batch size:      49
  | Average batch size:     102.985
  | Standard deviation of batch sizes:      11.616

  Integration load balanced across    20 MPI tasks.
  Work distribution over tasks is as follows:
  Task     0 has     108047 integration points.
  Task     1 has     108035 integration points.
  Task     2 has     108049 integration points.
  Task     3 has     108093 integration points.
  Task     4 has     108073 integration points.
  Task     5 has     108009 integration points.
  Task     6 has     108016 integration points.
  Task     7 has     108062 integration points.
  Task     8 has     108092 integration points.
  Task     9 has     108024 integration points.
  Task    10 has     108111 integration points.
  Task    11 has     108024 integration points.
  Task    12 has     108099 integration points.
  Task    13 has     108002 integration points.
  Task    14 has     108009 integration points.
  Task    15 has     108058 integration points.
  Task    16 has     108099 integration points.
  Task    17 has     108035 integration points.
  Task    18 has     108019 integration points.
  Task    19 has     108084 integration points.
  Initializing partition tables, free-atom densities, potentials, etc. across the integration grid (initialize_grid_storage).
  | initialize_grid_storage: Actual outermost partition radius vs. multipole_radius_free
  | (-- VB: in principle, multipole_radius_free should be larger, hence this output)
  | Species        1: Confinement radius =              7.000000000000000 AA, multipole_radius_free =              7.042572113910259 AA.
  | Species        1: outer_partition_radius set to              7.042572113910259 AA .
  | Species        2: Confinement radius =              6.000000000000000 AA, multipole_radius_free =              6.033387558927091 AA.
  | Species        2: outer_partition_radius set to              6.033387558927091 AA .
  | Species        3: Confinement radius =              6.000000000000000 AA, multipole_radius_free =              6.012827091137924 AA.
  | Species        3: outer_partition_radius set to              6.012827091137924 AA .
  | Species        4: Confinement radius =              6.000000000000000 AA, multipole_radius_free =              6.015836048499353 AA.
  | Species        4: outer_partition_radius set to              6.015836048499353 AA .
  | Original list of interatomic distances with        1741 x       1741 entries is created.
  | Net number of integration points:  2161040
  | of which are non-zero points    :  1744609
  | Numerical average free-atom electrostatic potential    :     -9.43798280 eV
  Renormalizing the initial density to the exact electron count on the 3D integration grid.
  | Initial density: Formal number of electrons (from input files) :    1040.0000000000
  | Integrated number of electrons on 3D grid     :    1039.9998984490
[...]
  | Total energy evaluation                    :        0.003 s           0.005 s

  Partial memory accounting:
  | Current value for overall tracked memory usage on task 0  :         274.164 MB
  | Peak value for overall tracked memory usage on task 0     :         554.078 MB after allocating temp_ham_ovlp
  | Largest tracked array allocation on task 0 so far         :         139.958 MB  when allocating overlap_matrix
  Note:  These values currently only include a subset of arrays which are explicitly tracked.
  The "true" memory usage will be greater.
------------------------------------------------------------
  |------------------------------------------
  | Final ELSI Output
  |------------------------------------------
  | Number of basis functions :         3624
  | Number of electrons       :       1040.0
  | Number of spins           :            1
  | Number of k-points        :            4
  | Number of states          :          760
  | Solver                    :         ELPA
  | Parallel mode             :   MULTI_PROC
  | Matrix format             :  BLACS_DENSE
  | Matrix sparsity           :        0.102
  |------------------------------------------
  | ELSI Project (c)  elsi-interchange.org
  |------------------------------------------
  Removing unitary transformations (pure translations, rotations) from forces on atoms.
  Atomic forces before filtering:
  | Net force on center of mass :  -0.261167E-02  0.194268E-02  0.308347E-02 eV/A
  Atomic forces after filtering:
  | Net force on center of mass :   0.490617E-15  0.142725E-14 -0.144955E-14 eV/A

  Energy and forces in a compact form:
  | Total energy uncorrected      :         -0.617645118616674E+06 eV
  | Total energy corrected        :         -0.617645118616674E+06 eV  <-- do not rely on this value for anything but (periodic) metals
  | Electronic free energy        :         -0.617645118616674E+06 eV
  Total atomic forces (unitary forces cleaned) [eV/Ang]:
  |   1         -0.767050596627125E-01          0.448510744919027E-02         -0.938982938642099E-01
  |   2         -0.356623681931697E-01         -0.707308663405011E-01          0.560292814616041E-02
  |   3         -0.898565544600543E-01         -0.109529670585965E+00          0.799138595805541E-01
  |   4         -0.669501812521137E-01         -0.498014622823522E-01          0.570755137402812E-01
  |   5          0.170895974550453E-01          0.677438857438344E-01          0.658691102406034E-01
  |   6          0.763989836608891E-01         -0.138284449577746E-01          0.917418678657390E-01
  |   7          0.129379956832175E-01          0.642398046793230E-01          0.726408078742562E-01
  |   8          0.686210654972904E-01          0.644510014721460E-01          0.270558514126820E-01
  |   9          0.883250096984765E-01          0.557140543209537E-01          0.193186197373185E-01
  |  10          0.845360514760720E-01         -0.132802874282320E-01         -0.560116695026850E-01
  |  11         -0.296743360450543E-01          0.474785278245787E-01         -0.465632733855583E-01
  |  12         -0.144070197168007E+00         -0.992406006755998E-01         -0.791805447870806E-01
  |  13         -0.661382402328711E-01          0.216399081420973E-01          0.240901161915182E-01
  |  14         -0.160077962377290E-01          0.387561375810033E-01          0.307070747926573E-01
  |  15          0.648253641472856E-01         -0.118226254437544E+00          0.150492424760890E+00
  |  16          0.106147853020117E+00         -0.586294074683114E-01          0.978424584264374E-01
  |  17         -0.684108632093203E-01          0.429721090096874E-01         -0.232134085008322E-01
  |  18         -0.141838412272049E-01          0.149207666715151E-01         -0.197884806624349E-01
  |  19          0.671291601724052E-01          0.864573712598765E-01         -0.110031187056416E+00
  |  20          0.986196073046979E-01          0.199388259899668E-01         -0.167634642360889E-01
  |  21          0.544779991256458E-01         -0.174725388428002E-02         -0.559278731574350E-01
  |  22         -0.859738886761241E-01         -0.225519454415317E-01          0.425044584301356E-02
  |  23          0.728662074262456E-01         -0.722635874649723E-01          0.115267499291062E+00
  |  24          0.721136749658972E-01         -0.110975897742114E+00          0.146530709638585E+00
  |  25          0.392443487320946E-01         -0.551870854458800E-01         -0.580736063576210E-01
  |  26          0.638951173469897E-01         -0.276654772269397E-01         -0.939276122543292E-01
  |  27         -0.180940446665486E-02          0.383417161465174E-01         -0.349851129690139E-01
  |  28          0.338993273299706E-02          0.149512050759365E-01         -0.869536806607390E-01
  |  29          0.389523190405519E-01         -0.203101215428233E-01         -0.123158302667024E+00
  |  30         -0.144998224155070E+00          0.738224980857595E-01          0.578743427013344E-01
  |  31          0.255518025480754E-01          0.341715781721255E-01         -0.611587240543355E-01
  |  32         -0.803652801528824E-01          0.365247510535774E-02          0.751535968711243E-01
  |  33         -0.102154029653128E+00         -0.717476687624884E-02          0.447452498305262E-02
  |  34          0.592247097876527E-01         -0.587919308181143E-02          0.409275975649699E-01
  |  35         -0.312648068479951E-01          0.405232558574193E-01         -0.399757248386497E-01
  |  36         -0.951377769387045E-01          0.798328996554031E-01         -0.470219533026283E-01
  |  37          0.518464114005850E-01          0.616474917482784E-01          0.221967915797536E-01
  |  38         -0.258029497169850E-02          0.842335398522388E-01         -0.319607428745704E-01
  |  39         -0.185102969348166E-01          0.624881066674517E-01          0.596335153698417E-01
  |  40          0.347636721219567E-01          0.770570751187897E-01          0.161053928417201E-01
  |  41         -0.347696431137699E-01          0.337386554717854E-01         -0.311220245211417E-01
  |  42         -0.472825350075942E-01          0.845503121373025E-01         -0.475862770309583E-01
  |  43         -0.558005857890340E-02          0.573557098718643E-02          0.457407976170657E-01
  |  44         -0.982815277662516E-01         -0.986414178310545E-01         -0.899337989622927E-01
  |  45          0.892455514426198E-01         -0.640036178725837E-01         -0.982134388184652E-01
  |  46          0.567705304874127E-01         -0.338856742915792E-02         -0.828261708806956E-01
  |  47         -0.792464469012406E-01          0.350378898856562E-01          0.133227118776210E-01
  |  48         -0.279108614320975E-01         -0.613559711972664E-02          0.205467410660873E-01
  |  49          0.286718011786687E-01          0.774586813715439E-01         -0.715828966139066E-01
  |  50         -0.178031185190072E+00         -0.787805958183812E-02         -0.146586751161659E+00
  |  51         -0.216876781801677E-01         -0.145894754763646E+00         -0.788259867349969E-01
  |  52         -0.915985934202434E-01         -0.175147656735824E-01          0.161775855149366E+00
  |  53         -0.177445530879209E-01          0.297169182451386E-01          0.560505101488670E-01
  |  54          0.666162254215866E-01          0.165622621979832E+00          0.747919331081303E-01
  |  55         -0.508365742600276E-01         -0.406716271561731E-01         -0.130248145197664E+00
  |  56          0.986045096482864E-01         -0.546043121397588E-01          0.279648291448702E-01
  |  57         -0.899941696216043E-01         -0.424653732459082E-01         -0.418852218299394E-01
  |  58         -0.115985816414377E+00          0.552294226491332E-01         -0.387550920457736E-01
  |  59          0.629057366708299E-01         -0.163072126364406E-01         -0.563095037130334E-01
  |  60          0.115916516489602E-01          0.825880995650538E-01         -0.233830307550191E-01
  |  61          0.559975365030947E-01         -0.367558379430967E-01          0.571405233366724E-01
  |  62          0.175940182753844E+00         -0.257966766121247E-01          0.241443680310047E-01
  |  63          0.723594889660821E-02         -0.393217610779638E-02          0.817439408611754E-01
  |  64          0.496997591488028E-02          0.975721308978866E-02         -0.513753319972729E-02
  |  65         -0.696492142588604E+00          0.603750336421698E+00         -0.596646328850311E+00
  |  66         -0.625467084273436E+00          0.493278704853690E+00         -0.642117808529593E+00
  |  67          0.766834313663466E+00         -0.710959157607995E+00         -0.575903654950314E+00
  |  68          0.768448830244071E+00         -0.639465646648566E+00         -0.633537661378907E+00
  |  69          0.753113087599289E+00          0.707580180063004E+00          0.695589339541387E+00
  |  70          0.710955477011284E+00          0.744751146905368E+00          0.748387328001482E+00
  |  71         -0.583563672272930E+00         -0.673732556787453E+00          0.599750816683755E+00
  |  72         -0.643224606400731E+00         -0.682433835861497E+00          0.750978325409100E+00
  |  73         -0.571276351999815E+00         -0.605400253794580E+00          0.749358552154521E+00
  |  74         -0.673853488202348E+00         -0.725058474455121E+00          0.784112152513331E+00
  |  75         -0.736588879571333E+00          0.505627982717023E+00         -0.844690913084103E+00
  |  76         -0.576803175932575E+00          0.559222259401885E+00         -0.754925526300063E+00
  |  77          0.474147612185074E+00          0.783872305114607E+00          0.770413413823742E+00
  |  78          0.838459267657842E+00          0.654075344091303E+00          0.524830466648629E+00
  |  79          0.846441808110339E+00         -0.568162959666510E+00         -0.493030716357377E+00
  |  80          0.636284214587404E+00         -0.705048503008516E+00         -0.614146215765709E+00
  |  81          0.621107750749917E+00         -0.655019689470808E+00         -0.521776924955653E+00
  |  82          0.693723851343177E+00         -0.748789780946444E+00         -0.667791512291439E+00
  |  83         -0.760685725870385E+00         -0.498572158185190E+00          0.720902863329620E+00
  |  84         -0.855820876012079E+00         -0.623169893636329E+00          0.749941783750939E+00
  |  85          0.524613460735002E+00          0.541205344680089E+00          0.555782278566284E+00
  |  86          0.713874516186355E+00          0.605874874053645E+00          0.589690617694975E+00
  |  87         -0.701294116098424E+00          0.681561068855875E+00         -0.678601739324524E+00
  |  88         -0.690922841700766E+00          0.811009872609024E+00         -0.698210344486666E+00
  |  89         -0.676382438009823E+00         -0.714622551077229E+00          0.656799017579734E+00
  |  90         -0.711953142628100E+00         -0.610001815444007E+00          0.805065673844456E+00
  |  91         -0.690713406443401E+00          0.608849160455088E+00         -0.593515119702903E+00
  |  92         -0.641738707476065E+00          0.500184023219884E+00         -0.852068768276654E+00
  |  93          0.743092568608053E+00          0.780619277171512E+00          0.442736859925025E+00
  |  94          0.641873435772668E+00          0.804333418740280E+00          0.559964140945005E+00
  |  95          0.701053748423030E+00         -0.718359146244919E+00         -0.678831422132813E+00
  |  96          0.620645652311594E+00         -0.758995159298610E+00         -0.718444703117378E+00
  |  97          0.141042656932997E+00          0.439489955730169E-01         -0.239553941970203E-01
  |  98          0.114878784297970E-01         -0.960570691483506E-01         -0.620874624704407E-01
  |  99         -0.168980139765587E+00         -0.170795953226104E+00          0.860685349026304E-01
  | 100         -0.150324225119355E-01         -0.269108352379510E-02          0.385634444172784E-01
  | 101          0.128740062470193E-01          0.189825793076463E+00         -0.149036941957260E+00
  | 102         -0.137261024664827E+00          0.140198196338789E+00          0.303043149232176E-01
  | 103          0.505816867019961E-01         -0.248337717397852E+00         -0.282131183607452E-02
  | 104          0.572949684713933E-01          0.137962713071531E+00          0.135902812112602E+00

  ------------------------------------ 
  Start decomposition of the XC Energy 
  ------------------------------------ 
  X and C from original XC functional choice 
  Hartree-Fock Energy :          0.000000000 Ha              0.000000000 eV
  X Energy            :      -1483.245720803 Ha         -40361.169616747 eV
  C Energy            :        -38.604134417 Ha          -1050.471944920 eV
  Total XC Energy     :      -1521.849855220 Ha         -41411.641561668 eV
  ------------------------------------ 
  LDA X and C from self-consistent density 
  X Energy LDA        :      -1371.693660410 Ha         -37325.683609618 eV
  C Energy LDA        :        -78.149150833 Ha          -2126.546591667 eV
  ------------------------------------ 
  End decomposition of the XC Energy 
  ------------------------------------ 

------------------------------------------------------------

------------------------------------------------------------------------------
  Final output of selected total energy values:

  The following output summarizes some interesting total energy values
  at the end of a run (AFTER all relaxation, molecular dynamics, etc.).

  | Total energy of the DFT / Hartree-Fock s.c.f. calculation      :        -617645.118616674 eV
  | Final zero-broadening corrected energy (caution - metals only) :        -617645.118616674 eV
  | For reference only, the value of 1 Hartree used in FHI-aims is :             27.211384500 eV

  Before relying on these values, please be sure to understand exactly which
  total energy value is referred to by a given number. Different objects may
  all carry the same name 'total energy'. Definitions:

  Total energy of the DFT / Hartree-Fock s.c.f. calculation:
  | Note that this energy does not include ANY quantities calculated after the
  | s.c.f. cycle, in particular not ANY RPA, MP2, etc. many-body perturbation terms.

  Final zero-broadening corrected energy:
  | For metallic systems only, a broadening of the occupation numbers at the Fermi
  | level can be extrapolated back to zero broadening by an electron-gas inspired
  | formula. For all systems that are not real metals, this value can be
  | meaningless and should be avoided.

------------------------------------------------------------------------------
  Methods described in the following list of references were used in this FHI-aims run.
  If you publish the results, please make sure to cite these reference if they apply.
  FHI-aims is an academic code, and for our developers (often, Ph.D. students
  and postdocs), scientific credit in the community is essential.
  Thank you for helping us!

  For any use of FHI-aims, please cite:

    Volker Blum, Ralf Gehrke, Felix Hanke, Paula Havu, Ville Havu,
    Xinguo Ren, Karsten Reuter, and Matthias Scheffler
    'Ab initio molecular simulations with numeric atom-centered orbitals'
    Computer Physics Communications 180, 2175-2196 (2009)
    http://dx.doi.org/10.1016/j.cpc.2009.06.022


  The provided symmetry information was generated with SPGlib:

    Atsushi Togo, Yusuke Seto, Dimitar Pashov
    SPGlib 1.7.3 obtained from http://spglib.sourceforge.net
    Copyright (C) 2008 Atsushi Togo


  The scalable eigensolver library ELPA was used in your run.
  ELPA is essential especially for large systems on hundreds or thousands of CPUs.
  For ELPA, please cite:

    Andreas Marek, Volker Blum, Rainer Johanni, Ville Havu, Bruno Lang,
    Thomas Auckenthaler, Alexander Heinecke, Hans-Joachim Bungartz, and Hermann Lederer,
    'The ELPA Library - Scalable Parallel Eigenvalue Solutions
    for Electronic Structure Theory and Computational Science'
    The Journal of Physics: Condensed Matter 26, 213201 (2014).
    http://dx.doi.org/10.1088/0953-8984/26/21/213201


  The ELSI infrastructure was used in your run to solve the Kohn-Sham electronic structure.
  Please check out http://elsi-interchange.org to learn more.
  If scalability is important for your project, please acknowledge ELSI by citing:

    V. W-z. Yu, F. Corsetti, A. Garcia, W. P. Huhn, M. Jacquelin, W. Jia,
    B. Lange, L. Lin, J. Lu, W. Mi, A. Seifitokaldani, A. Vazquez-Mayagoitia,
    C. Yang, H. Yang, and V. Blum
    'ELSI: A unified software interface for Kohn-Sham electronic structure solvers'
    Computer Physics Communications 222, 267-285 (2018).
    http://dx.doi.org/10.1016/j.cpc.2017.09.007


  For the real-space grid partitioning and parallelization used in this calculation, please cite:

    Ville Havu, Volker Blum, Paula Havu, and Matthias Scheffler,
    'Efficient O(N) integration for all-electron electronic structure calculation'
    'using numerically tabulated basis functions'
    Journal of Computational Physics 228, 8367-8379 (2009).
    http://dx.doi.org/10.1016/j.jcp.2009.08.008

  Of course, there are many other important community references, e.g., those cited in the
  above references. Our list is limited to references that describe implementations in the
  FHI-aims code. The reason is purely practical (length of this list) - please credit others as well.

------------------------------------------------------------
          Leaving FHI-aims.
          Date     :  20220704, Time     :  103918.874

          Computational steps:
          | Number of self-consistency cycles          :           21
          | Number of SCF (re)initializations          :            1

          Detailed time accounting                     :  max(cpu_time)    wall_clock(cpu1)
          | Total time                                 :     3704.222 s        3704.280 s
          | Preparation time                           :        0.466 s           0.470 s
          | Boundary condition initalization           :        0.954 s           0.954 s
          | Grid partitioning                          :        4.111 s           4.110 s
          | Preloading free-atom quantities on grid    :        0.035 s           0.035 s
          | Free-atom superposition energy             :        1.770 s           1.769 s
          | Total time for integrations                :      741.530 s         741.476 s
          | Total time for solution of K.-S. equations :       81.204 s          81.203 s
          | Total time for density & force components  :     2260.607 s        2260.431 s
          | Total time for mixing & preconditioning    :      214.721 s         214.834 s
          | Total time for Hartree multipole update    :        0.588 s           0.587 s
          | Total time for Hartree multipole sum       :      385.047 s         385.028 s
          | Total time for total energy evaluation     :        0.010 s           0.016 s

          Partial memory accounting:
          | Residual value for overall tracked memory usage across tasks :           0.000 MB (should be 0.000 MB)
          | Peak values for overall tracked memory usage (after allocating temp_ham_ovlp):
          |   Minimum:      552.686 MB (on task  3)
          |   Maximum:      554.078 MB (on task  1)
          |   Average:      553.104 MB
          | Largest tracked array allocation (overlap_matrix):
          |   Minimum:      139.958 MB (on task  1)
          |   Maximum:      139.958 MB (on task  1)
          |   Average:      139.958 MB
          Note:  These values currently only include a subset of arrays which are explicitly tracked.
          The "true" memory usage will be greater.

          Have a nice day.
------------------------------------------------------------
