  MPI-parallelism will be employed.
------------------------------------------------------------
          Invoking FHI-aims ...
          Version 171221_1
          Compiled on 2020/09/23 at 19:46:43 on host login.service.

          When using FHI-aims, please cite the following reference:

          Volker Blum, Ralf Gehrke, Felix Hanke, Paula Havu,
          Ville Havu, Xinguo Ren, Karsten Reuter, and Matthias Scheffler,
          'Ab Initio Molecular Simulations with Numeric Atom-Centered Orbitals',
          Computer Physics Communications 180, 2175-2196 (2009)

          For any questions about FHI-aims, please visit the aimsclub website
          with its forums and wiki. Contributions to both the forums and the
          wiki are warmly encouraged - they are for you, and everyone is welcome there.

------------------------------------------------------------



  Date     :  20220721, Time     :  125314.300
  Time zero on CPU 1             :   0.834490000000000E-01  s.
  Internal wall clock time zero  :           427639994.300  s.

  FHI-aims created a unique identifier for this run for later identification
  aims_uuid : 58799D52-1EA2-4397-A277-377569550F13

  Using       20 parallel tasks.
  Task        0 on host node062 reporting.
  Task        1 on host node062 reporting.
  Task        2 on host node062 reporting.
  Task        3 on host node062 reporting.
  Task        4 on host node062 reporting.
  Task        5 on host node062 reporting.
  Task        6 on host node062 reporting.
  Task        7 on host node062 reporting.
  Task        8 on host node062 reporting.
  Task        9 on host node062 reporting.
  Task       10 on host node062 reporting.
  Task       11 on host node062 reporting.
  Task       12 on host node062 reporting.
  Task       13 on host node062 reporting.
  Task       14 on host node062 reporting.
  Task       15 on host node062 reporting.
  Task       16 on host node062 reporting.
  Task       17 on host node062 reporting.
  Task       18 on host node062 reporting.
  Task       19 on host node062 reporting.

  Performing system and environment tests:
  *** Environment variable OMP_NUM_THREADS is not set
  *** For performance reasons you might want to set it to 1
  | Maximum stacksize for task 0: unlimited
  | Maximum stacksize for task 1: unlimited
  | Maximum stacksize for task 2: unlimited
  | Maximum stacksize for task 3: unlimited
  | Maximum stacksize for task 4: unlimited
  | Maximum stacksize for task 5: unlimited
  | Maximum stacksize for task 6: unlimited
  | Maximum stacksize for task 7: unlimited
  | Maximum stacksize for task 8: unlimited
  | Maximum stacksize for task 9: unlimited
  | Maximum stacksize for task 10: unlimited
  | Maximum stacksize for task 11: unlimited
  | Maximum stacksize for task 12: unlimited
  | Maximum stacksize for task 13: unlimited
  | Maximum stacksize for task 14: unlimited
  | Maximum stacksize for task 15: unlimited
  | Maximum stacksize for task 16: unlimited
  | Maximum stacksize for task 17: unlimited
  | Maximum stacksize for task 18: unlimited
  | Maximum stacksize for task 19: unlimited
  | Current stacksize for task 0: unlimited
  | Current stacksize for task 1: unlimited
  | Current stacksize for task 2: unlimited
  | Current stacksize for task 3: unlimited
  | Current stacksize for task 4: unlimited
  | Current stacksize for task 5: unlimited
  | Current stacksize for task 6: unlimited
  | Current stacksize for task 7: unlimited
  | Current stacksize for task 8: unlimited
  | Current stacksize for task 9: unlimited
  | Current stacksize for task 10: unlimited
  | Current stacksize for task 11: unlimited
  | Current stacksize for task 12: unlimited
  | Current stacksize for task 13: unlimited
  | Current stacksize for task 14: unlimited
  | Current stacksize for task 15: unlimited
  | Current stacksize for task 16: unlimited
  | Current stacksize for task 17: unlimited
  | Current stacksize for task 18: unlimited
  | Current stacksize for task 19: unlimited
  | Checking for scalapack...
  | Testing pdtran()...
  | All pdtran() tests passed.

  Obtaining array dimensions for all initial allocations:
  
  -----------------------------------------------------------------------
  Parsing control.in (first pass over file, find array dimensions only).
  The contents of control.in will be repeated verbatim below
  unless switched off by setting 'verbatim_writeout .false.' .
  in the first line of control.in .
  -----------------------------------------------------------------------
  
  #===============================================================================
  # FHI-aims file: ./control.in
  # Created using the Atomic Simulation Environment (ASE)
  # Wed Mar 24 12:41:28 2021
  #===============================================================================
  xc                                 pbe
  sc_accuracy_etot                   1e-06
  sc_accuracy_eev                    0.001
  sc_accuracy_rho                    1e-06
  sc_accuracy_forces                 0.0001
  friction_temperature               300  # default 300
  
    k_grid                           6 6 6
  
  
  
  ################################################################################
  #
  #  FHI-aims code project
  #  VB, Fritz-Haber Institut, 2009
  #
  #  Suggested "light" defaults for Li atom (to be pasted into control.in file)
  #  Be sure to double-check any results obtained with these settings for post-processing,
  #  e.g., with the "tight" defaults and larger basis sets.
  #
  ################################################################################
    species        Li
  #     global species definitions
      nucleus             3
      mass                6.941
  #
      l_hartree           4
  #
      cut_pot             3.5  1.5  1.0
      basis_dep_cutoff    1e-4
  #
      radial_base         29 5.0
      radial_multiplier   1
      angular_grids       specified
        division   0.4484  110
        division   0.5659  194
        division   0.6315  302
  #      division   0.6662  434
  #      division   0.8186  590
  #      division   0.9037  770
  #      division   6.2760  974
  #      outer_grid   974
        outer_grid   302
  ################################################################################
  #
  #  Definition of "minimal" basis
  #
  ################################################################################
  #     valence basis states
      valence      2  s   1.
  #     ion occupancy
      ion_occ      1  s   2.
  ################################################################################
  #
  #  Suggested additional basis functions. For production calculations,
  #  uncomment them one after another (the most important basis functions are
  #  listed first).
  #
  #  Constructed for dimers: 1.80 A, 2.25 A, 2.75 A, 3.50 A, 4.50 A
  #
  ################################################################################
  #  "First tier" - improvements: -189.23 meV to -6.35 meV
       hydro 2 p 1.6
       hydro 2 s 2
       hydro 3 d 2.6
  #  "Second tier" - improvements: -4.69 meV to -0.41 meV
  #     hydro 3 p 4.6
  #     hydro 2 p 1.8
  #     hydro 3 s 6.2
  #     hydro 4 d 4.7
  #     hydro 4 f 4.1
  #  "Third tier" - improvements: -0.20 meV to -0.15 meV
  #     hydro 4 d 0.95
  #     hydro 3 p 6.2
  #     hydro 3 s 1.7
  #  Further functions, listed for completeness
  #     VB: The following functions are only listed for completeness; test very
  #         carefully before any kind of production use. From the point of view
  #         of the basis construction, their main role is to fill up space,
  #         and they are solely determined by the location of the cutoff potential.
  #     hydro 3 p 0.1  # -0.15 meV
  #     hydro 4 d 5    # -0.12 meV
  #     hydro 4 f 0.1  # -0.14 meV
  #     hydro 5 g 0.1  # -0.06 meV
  
  
  ################################################################################
  #
  #  FHI-aims code project
  #  VB, Fritz-Haber Institut, 2010
  #
  #  Suggested "light" defaults for P atom (to be pasted into control.in file)
  #  Be sure to double-check any results obtained with these settings for post-processing,
  #  e.g., with the "tight" defaults and larger basis sets.
  #
  ################################################################################
    species        P
  #     global species definitions
      nucleus             15
      mass                30.973762
  #
      l_hartree           4
  #
      cut_pot             3.5          1.5  1.0
      basis_dep_cutoff    1e-4
  #
      radial_base         43 5.0
      radial_multiplier   1
      angular_grids       specified
        division   0.5527   50
        division   0.8801  110
        division   1.1447  194
        division   1.3165  302
  #      division   1.4113  434
  #      division   1.4781  590
  #      division   1.5482  770
  #      division   1.5845  974
  #      division   2.2606 1202
        outer_grid  302
  ################################################################################
  #
  #  Definition of "minimal" basis
  #
  ################################################################################
  #     valence basis states
      valence      3  s   2.
      valence      3  p   3.
  #     ion occupancy
      ion_occ      3  s   1.
      ion_occ      3  p   2.
  ################################################################################
  #
  #  Suggested additional basis functions. For production calculations,
  #  uncomment them one after another (the most important basis functions are
  #  listed first).
  #
  #  Constructed for dimers: 1.625 A, 1.875 A, 2.5 A, 3.25 A, 4.0 A
  #
  ################################################################################
  #  "First tier" - improvements: -726.20 meV to -35.91 meV
       ionic 3 d auto
       ionic 3 p auto
  #     hydro 4 f 6.2
  #     hydro 5 g 8.6
       ionic 3 s auto
  #  "Second tier" - improvements: -16.02 meV to -1.71 meV
  #     hydro 4 d 6.2
  #     hydro 4 p 9.2
  #     hydro 5 f 9.8
  #     hydro 1 s 0.7
  #     hydro 5 g 13.2
  #  "Third tier" - improvements: -1.82 meV to -0.20 meV
  #     hydro 3 p 2.5
  #     hydro 4 d 6.4
  #     hydro 5 f 11.2
  #     hydro 2 s 1.5
  #  "Fourth tier" - improvements: -0.91 meV to -0.17 meV
  #     hydro 3 d 16.8
  #     hydro 5 g 18
  #     hydro 4 p 4.5
  #     hydro 3 s 2.1
  #  Further basis functions that fell out of the optimization - < -0.09 meV
  #     hydro 4 p 10.4
  #     hydro 4 d 17.6
  #     hydro 4 s 11.2
  ################################################################################
  #
  #  FHI-aims code project
  #  VB, Fritz-Haber Institut, 2009
  #
  #  Suggested "light" defaults for S atom (to be pasted into control.in file)
  #  Be sure to double-check any results obtained with these settings for post-processing,
  #  e.g., with the "tight" defaults and larger basis sets.
  #
  ################################################################################
    species        S
  #     global species definitions
      nucleus             16
      mass                32.065
  #
      l_hartree           4
  #
      cut_pot             3.5          1.5  1.0
      basis_dep_cutoff    1e-4
  #
      radial_base         44 5.0
      radial_multiplier   1
      angular_grids       specified
        division   0.4665  110
        division   0.5810  194
        division   0.7139  302
  #      division   0.8274  434
  #      division   0.9105  590
  #      division   1.0975  770
  #      division   1.2028  974
  #      outer_grid  974
        outer_grid  302
  ################################################################################
  #
  #  Definition of "minimal" basis
  #
  ################################################################################
  #     valence basis states
      valence      3  s   2.
      valence      3  p   4.
  #     ion occupancy
      ion_occ      3  s   1.
      ion_occ      3  p   3.
  ################################################################################
  #
  #  Suggested additional basis functions. For production calculations,
  #  uncomment them one after another (the most important basis functions are
  #  listed first).
  #
  #  Constructed for dimers: 1.6 A, 1.9 A, 2.5 A, 3.25 A, 4.0 A
  #
  ################################################################################
  #  "First tier" - improvements: -652.81 meV to -45.53 meV
       ionic 3 d auto
       hydro 2 p 1.8
  #     hydro 4 f 7
       ionic 3 s auto
  #  "Second tier" - improvements: -30.20 meV to -1.74 meV
  #     hydro 4 d 6.2
  #     hydro 5 g 10.8
  #     hydro 4 p 4.9
  #     hydro 5 f 10
  #     hydro 1 s 0.8
  #  "Third tier" - improvements: -1.04 meV to -0.20 meV
  #     hydro 3 d 3.9
  #     hydro 3 d 2.7
  #     hydro 5 g 12
  #     hydro 4 p 10.4
  #     hydro 5 f 12.4
  #     hydro 2 s 1.9
  #  "Fourth tier" - improvements: -0.35 meV to -0.06 meV
  #     hydro 4 d 10.4
  #     hydro 4 p 7.2
  #     hydro 4 d 10
  #     hydro 5 g 19.2
  #     hydro 4 s 12
  
  ################################################################################
  #
  #  FHI-aims code project
  #  VB, Fritz-Haber Institut, 2009
  #
  #  Suggested "light" defaults for Cl atom (to be pasted into control.in file)
  #  Be sure to double-check any results obtained with these settings for post-processing,
  #  e.g., with the "tight" defaults and larger basis sets.
  #
  ################################################################################
    species        Cl
  #     global species definitions
      nucleus             17
      mass                35.453
  #
      l_hartree           4
  #
      cut_pot             3.5          1.5  1.0
      basis_dep_cutoff    1e-4
  #
      radial_base         45 5.0
      radial_multiplier   1
      angular_grids       specified
        division   0.4412  110
        division   0.5489  194
        division   0.6734  302
  #      division   0.7794  434
  #      division   0.9402  590
  #      division   1.0779  770
  #      division   1.1792  974
  #      outer_grid  974
        outer_grid  302
  ################################################################################
  #
  #  Definition of "minimal" basis
  #
  ################################################################################
  #     valence basis states
      valence      3  s   2.
      valence      3  p   5.
  #     ion occupancy
      ion_occ      3  s   1.
      ion_occ      3  p   4.
  ################################################################################
  #
  #  Suggested additional basis functions. For production calculations,
  #  uncomment them one after another (the most important basis functions are
  #  listed first).
  #
  #  Constructed for dimers: 1.65 A, 2.0 A, 2.5 A, 3.25 A, 4.0 A
  #
  ################################################################################
  #  "First tier" - improvements: -429.57 meV to -15.03 meV
       ionic 3 d auto
       hydro 2 p 1.9
  #     hydro 4 f 7.4
       ionic 3 s auto
  #     hydro 5 g 10.4
  #  "Second tier" - improvements: -7.84 meV to -0.48 meV
  #     hydro 3 d 3.3
  #     hydro 5 f 9.8
  #     hydro 1 s 0.75
  #     hydro 5 g 11.2
  #     hydro 4 p 10.4
  #  "Third tier" - improvements: -1.00 meV to -0.12 meV
  #     hydro 4 d 12.8
  #     hydro 4 f 4.6
  #     hydro 4 d 10.8
  #     hydro 2 s 1.8
  #     hydro 3 p 3
  #  Further functions that fell out - improvements: -0.10 meV and below
  #     hydro 5 f 14.4
  #     hydro 4 s 12.8
  #     hydro 3 d 11.6
  #     hydro 4 s 4.1
  
  -----------------------------------------------------------------------
  Completed first pass over input file control.in .
  -----------------------------------------------------------------------
  
  
  -----------------------------------------------------------------------
  Parsing geometry.in (first pass over file, find array dimensions only).
  The contents of geometry.in will be repeated verbatim below
  unless switched off by setting 'verbatim_writeout .false.' .
  in the first line of geometry.in .
  -----------------------------------------------------------------------
  
  #=======================================================
  # FHI-aims file: /home/gz_fan/Documents/ML/train/battery/CCS/CCS/test/LiCl/aims_geo/geometry.in.0
  # Created using the Atomic Simulation Environment (ASE)
  # Thu Jul 21 15:40:07 2022
  #=======================================================
  lattice_vector 4.1221984000000003 0.0000000000000000 0.0000000000000000
  lattice_vector 0.0000000000000000 4.1221984000000003 0.0000000000000000
  lattice_vector 0.0000000000000000 0.0000000000000000 4.1221984000000003
  atom 0.0000000000000000 0.0000000000000000 0.0000000000000000 Li
  atom 0.0000000000000000 2.0610992000000001 2.0610992000000001 Li
  atom 2.0610992000000001 0.0000000000000000 2.0610992000000001 Li
  atom 2.0610992000000001 2.0610992000000001 0.0000000000000000 Li
  atom 2.0610992000000001 0.0000000000000000 0.0000000000000000 Cl
  atom 2.0610992000000001 2.0610992000000001 2.0610992000000001 Cl
  atom 0.0000000000000000 0.0000000000000000 2.0610992000000001 Cl
  atom 0.0000000000000000 2.0610992000000001 0.0000000000000000 Cl
  
  -----------------------------------------------------------------------
  Completed first pass over input file geometry.in .
  -----------------------------------------------------------------------
  

  Basic array size parameters:
  | Number of species                 :        4
  | Number of atoms                   :        8
  | Number of lattice vectors         :        3
  | Max. basis fn. angular momentum   :        2
  | Max. atomic/ionic basis occupied n:        3
  | Max. number of basis fn. types    :        3
  | Max. radial fns per species/type  :        5
  | Max. logarithmic grid size        :     1362
  | Max. radial integration grid size :       45
  | Max. angular integration grid size:      302
  | Max. angular grid division number :        8
  | Radial grid for Hartree potential :     1362
  | Number of spin channels           :        1

------------------------------------------------------------
          Reading file control.in.
------------------------------------------------------------
  XC: Using PBE gradient-corrected functionals.
  Convergence accuracy of total energy:  0.1000E-05
  Convergence accuracy of sum of eigenvalues:  0.1000E-02
  Convergence accuracy of self-consistent charge density:  0.1000E-05
  Convergence accuracy of forces:  0.1000E-03
  Friction is calculated at temperature of   0.3000E+03 K
  Found k-point grid:         6         6         6
 
  Reading configuration options for species Li                  .
  | Found nuclear charge :   3.0000
  | Found atomic mass :    6.94100000000000      amu
  | Found l_max for Hartree potential  :   4
  | Found cutoff potl. onset [A], width [A], scale factor :    3.50000    1.50000    1.00000
  | Threshold for basis-dependent cutoff potential is   0.100000E-03
  | Found data for basic radial integration grid :    29 points, outermost radius =    5.000 A
  | Found multiplier for basic radial grid :   1
  | Found angular grid specification: user-specified.
  | Specified grid contains     4 separate shells.
  | Check grid settings after all constraints further below.
  | Found free-atom valence shell :  2 s   1.000
  | Found free-ion valence shell :  1 s   2.000
  | Found hydrogenic basis function :  2 p   1.600
  | Found hydrogenic basis function :  2 s   2.000
  | Found hydrogenic basis function :  3 d   2.600
  Species Li                  : Missing cutoff potential type.
  Defaulting to exp(1/x)/(1-x)^2 type cutoff potential.
  Species Li: No 'logarithmic' tag. Using default grid for free atom:
  | Default logarithmic grid data [bohr] : 0.1000E-03 0.1000E+03 0.1012E+01
  Species Li: On-site basis accuracy parameter (for Gram-Schmidt orthonormalisation) not specified.
  Using default value basis_acc =  0.1000000E-03.
  Species Li                  : Using default innermost maximum threshold i_radial=  2 for radial functions.
  Species Li                  : Default cutoff onset for free atom density etc. : 0.35000000E+01 AA.
  Species Li                  : Basic radial grid will be enhanced according to radial_multiplier =   1, to contain    29 grid points.
 
  Reading configuration options for species P                   .
  | Found nuclear charge :  15.0000
  | Found atomic mass :    30.9737620000000      amu
  | Found l_max for Hartree potential  :   4
  | Found cutoff potl. onset [A], width [A], scale factor :    3.50000    1.50000    1.00000
  | Threshold for basis-dependent cutoff potential is   0.100000E-03
  | Found data for basic radial integration grid :    43 points, outermost radius =    5.000 A
  | Found multiplier for basic radial grid :   1
  | Found angular grid specification: user-specified.
  | Specified grid contains     5 separate shells.
  | Check grid settings after all constraints further below.
  | Found free-atom valence shell :  3 s   2.000
  | Found free-atom valence shell :  3 p   3.000
  | Found free-ion valence shell :  3 s   1.000
  | Found free-ion valence shell :  3 p   2.000
  | Found ionic basis function :  3 d , default cutoff radius.
  | Found ionic basis function :  3 p , default cutoff radius.
  | Found ionic basis function :  3 s , default cutoff radius.
  Species P                   : Missing cutoff potential type.
  Defaulting to exp(1/x)/(1-x)^2 type cutoff potential.
  Species P : No 'logarithmic' tag. Using default grid for free atom:
  | Default logarithmic grid data [bohr] : 0.1000E-03 0.1000E+03 0.1012E+01
  | Will include ionic basis functions of  2.0-fold positive P                    ion.
  Species P : On-site basis accuracy parameter (for Gram-Schmidt orthonormalisation) not specified.
  Using default value basis_acc =  0.1000000E-03.
  Species P                   : Using default innermost maximum threshold i_radial=  2 for radial functions.
  Species P                   : Default cutoff onset for free atom density etc. : 0.35000000E+01 AA.
  Species P                   : Basic radial grid will be enhanced according to radial_multiplier =   1, to contain    43 grid points.
 
  Reading configuration options for species S                   .
  | Found nuclear charge :  16.0000
  | Found atomic mass :    32.0650000000000      amu
  | Found l_max for Hartree potential  :   4
  | Found cutoff potl. onset [A], width [A], scale factor :    3.50000    1.50000    1.00000
  | Threshold for basis-dependent cutoff potential is   0.100000E-03
  | Found data for basic radial integration grid :    44 points, outermost radius =    5.000 A
  | Found multiplier for basic radial grid :   1
  | Found angular grid specification: user-specified.
  | Specified grid contains     4 separate shells.
  | Check grid settings after all constraints further below.
  | Found free-atom valence shell :  3 s   2.000
  | Found free-atom valence shell :  3 p   4.000
  | Found free-ion valence shell :  3 s   1.000
  | Found free-ion valence shell :  3 p   3.000
  | Found ionic basis function :  3 d , default cutoff radius.
  | Found hydrogenic basis function :  2 p   1.800
  | Found ionic basis function :  3 s , default cutoff radius.
  Species S                   : Missing cutoff potential type.
  Defaulting to exp(1/x)/(1-x)^2 type cutoff potential.
  Species S : No 'logarithmic' tag. Using default grid for free atom:
  | Default logarithmic grid data [bohr] : 0.1000E-03 0.1000E+03 0.1012E+01
  | Will include ionic basis functions of  2.0-fold positive S                    ion.
  Species S : On-site basis accuracy parameter (for Gram-Schmidt orthonormalisation) not specified.
  Using default value basis_acc =  0.1000000E-03.
  Species S                   : Using default innermost maximum threshold i_radial=  2 for radial functions.
  Species S                   : Default cutoff onset for free atom density etc. : 0.35000000E+01 AA.
  Species S                   : Basic radial grid will be enhanced according to radial_multiplier =   1, to contain    44 grid points.
 
  Reading configuration options for species Cl                  .
  | Found nuclear charge :  17.0000
  | Found atomic mass :    35.4530000000000      amu
  | Found l_max for Hartree potential  :   4
  | Found cutoff potl. onset [A], width [A], scale factor :    3.50000    1.50000    1.00000
  | Threshold for basis-dependent cutoff potential is   0.100000E-03
  | Found data for basic radial integration grid :    45 points, outermost radius =    5.000 A
  | Found multiplier for basic radial grid :   1
  | Found angular grid specification: user-specified.
  | Specified grid contains     4 separate shells.
  | Check grid settings after all constraints further below.
  | Found free-atom valence shell :  3 s   2.000
  | Found free-atom valence shell :  3 p   5.000
  | Found free-ion valence shell :  3 s   1.000
  | Found free-ion valence shell :  3 p   4.000
  | Found ionic basis function :  3 d , default cutoff radius.
  | Found hydrogenic basis function :  2 p   1.900
  | Found ionic basis function :  3 s , default cutoff radius.
  Species Cl                  : Missing cutoff potential type.
  Defaulting to exp(1/x)/(1-x)^2 type cutoff potential.
  Species Cl: No 'logarithmic' tag. Using default grid for free atom:
  | Default logarithmic grid data [bohr] : 0.1000E-03 0.1000E+03 0.1012E+01
  | Will include ionic basis functions of  2.0-fold positive Cl                   ion.
  Species Cl: On-site basis accuracy parameter (for Gram-Schmidt orthonormalisation) not specified.
  Using default value basis_acc =  0.1000000E-03.
  Species Cl                  : Using default innermost maximum threshold i_radial=  2 for radial functions.
  Species Cl                  : Default cutoff onset for free atom density etc. : 0.35000000E+01 AA.
  Species Cl                  : Basic radial grid will be enhanced according to radial_multiplier =   1, to contain    45 grid points.
 
  Finished reading input file 'control.in'. Consistency checks are next.
 
  MPI_IN_PLACE appears to work with this MPI implementation.
  | Keeping use_mpi_in_place .true. (see manual).
  Target number of points in a grid batch is not set. Defaulting to  100
  Method for grid partitioning is not set. Defaulting to parallel hash+maxmin partitioning.
  Batch size limit is not set. Defaulting to    200
  By default, will store active basis functions for each batch.
  If in need of memory, prune_basis_once .false. can be used to disable this option.
  communication_type for Hartree potential was not specified.
  Defaulting to calc_hartree .
  Defaulting to Pulay charge density mixer.
  Pulay mixer: Number of relevant iterations not set.
  Defaulting to    8 iterations.
  Pulay mixer: Number of initial linear mixing iterations not set.
  Defaulting to    0 iterations.
  Work space size for distributed Hartree potential not set.
  Defaulting to   0.200000E+03 MB.
  Mixing parameter for charge density mixing has not been set.
  Using default: charge_mix_param =     0.0500.
  The mixing parameter will be adjusted in iteration number     2 of the first full s.c.f. cycle only.
  Algorithm-dependent basis array size parameters:
  | n_max_pulay                         :        8
  Maximum number of self-consistency iterations not provided.
  Presetting  1000 iterations.
  Presetting      1001 iterations before the initial mixing cycle
  is restarted anyway using the sc_init_iter criterion / keyword.
  Presetting a factor      1.000 between actual scf density residual
  and density convergence criterion sc_accuracy_rho below which sc_init_iter
  takes no effect.
  Geometry relaxation not requested: no relaxation will be performed.
  Handling of forces: Unphysical translation and rotation will be removed from forces.
  No accuracy limit for integral partition fn. given. Defaulting to  0.1000E-14.
  No threshold value for u(r) in integrations given. Defaulting to  0.1000E-05.
  No occupation type (smearing scheme) given. Defaulting to Gaussian broadening, width =  0.1000E-01 eV.
  The width will be adjusted in iteration number     2 of the first full s.c.f. cycle only.
  S.C.F. convergence parameters will be adjusted in iteration number     2 of the first full s.c.f. cycle only.
  No accuracy for occupation numbers given. Defaulting to  0.1000E-12.
  No threshold value for occupation numbers given. Defaulting to  0.0000E+00.
  No accuracy for fermi level given. Defaulting to  0.1000E-19.
  Maximum # of iterations to find E_F not set. Defaulting to  200.
  Preferred method for the eigenvalue solver ('KS_method') not specified in 'control.in'.
  Defaulting to serial version, 'lapack_fast', since more k-points than CPUs available.
  Will not use alltoall communication since running on < 1024 CPUs.
  Threshold for basis singularities not set.
  Default threshold for basis singularities:  0.1000E-04
  partition_type (choice of integration weights) for integrals was not specified.
  | Using a version of the partition function of Stratmann and coworkers ('stratmann_smoother').
  | At each grid point, the set of atoms used to build the partition table is smoothly restricted to
  | only those atoms whose free-atom density would be non-zero at that grid point.
  Partitioning for Hartree potential was not defined. Using partition_type for integrals.
  | Adjusted default value of keyword multip_moments_threshold to:       0.10000000E-11
  | This value may affect high angular momentum components of the Hartree potential in periodic systems.
  Spin handling was not defined in control.in. Defaulting to unpolarized case.
  Angular momentum expansion for Kerker preconditioner not set explicitly.
  | Using default value of   0
  No explicit requirement for turning off preconditioner.
  | By default, it will be turned off when the charge convergence reaches
  | sc_accuracy_rho  =   0.100000E-05
  | sc_accuracy_eev  =   0.100000E-02
  | sc_accuracy_etot =   0.100000E-05
  No special mixing parameter while Kerker preconditioner is on.
  Using default: charge_mix_param =     0.0500.
  No q(lm)/r^(l+1) cutoff set for long-range Hartree potential.
  | Using default value of  0.100000E-09 .
  | Verify using the multipole_threshold keyword.
  Defaulting to new monopole extrapolation.
  Density update method: automatic selection selected.
  Using density matrix based charge density update.
  Using density matrix based charge density update.
  Using packed matrix style: index .
  Defaulting to use time-reversal symmetry for k-point grid.
------------------------------------------------------------


------------------------------------------------------------
          Reading geometry description geometry.in.
------------------------------------------------------------
 * Warning! You did not set the 'relativistic' flag in input file 'control.in'.
 * Since you are not attempting to treat any elements beyond Ca(Z=20), FHI-aims
 * will default to 'relativistic none'.
 * You must ensure that this is really what you want!!
 * For example, DO NOT compute total-energy differences between results from
 * different settings of the 'relativistic' flag.
  Input structure read successfully.
  The structure contains        8 atoms,  and a total of         80.000 electrons.

  Input geometry:
  | Unit cell:
  |        4.12219840        0.00000000        0.00000000
  |        0.00000000        4.12219840        0.00000000
  |        0.00000000        0.00000000        4.12219840
  | Atomic structure:
  |       Atom                x [A]            y [A]            z [A]
  |    1: Species Li            0.00000000        0.00000000        0.00000000
  |    2: Species Li            0.00000000        2.06109920        2.06109920
  |    3: Species Li            2.06109920        0.00000000        2.06109920
  |    4: Species Li            2.06109920        2.06109920        0.00000000
  |    5: Species Cl            2.06109920        0.00000000        0.00000000
  |    6: Species Cl            2.06109920        2.06109920        2.06109920
  |    7: Species Cl            0.00000000        0.00000000        2.06109920
  |    8: Species Cl            0.00000000        2.06109920        0.00000000

  Lattice parameters for 3D lattice (in Angstroms) :     4.122198    4.122198    4.122198
  Angle(s) between unit vectors (in degrees)      :    90.000000   90.000000   90.000000

  |

  | The smallest distance between any two atoms is         2.06109920 AA.
  |
  | The first atom of this pair is atom number                      1 .
  | The second atom of this pair is atom number                     5 .
  | Wigner-Seitz cell of the first atom image           0     0     0 .
  | (The Wigner-Seitz cell of the second atom is 0 0 0  by definition.)

  Symmetry information by spglib:
  | Precision set to  0.1E-04
  | Number of Operations  : 192
  | Space group           : 225
  | International         : Fm-3m    3
  | Schoenflies           : Oh^5

  Quantities derived from the lattice vectors:
  | Reciprocal lattice vector 1:  1.524232  0.000000  0.000000
  | Reciprocal lattice vector 2:  0.000000  1.524232  0.000000
  | Reciprocal lattice vector 3:  0.000000  0.000000  1.524232
  | Unit cell volume                               :   0.700465E+02  A^3

  Range separation radius for Ewald summation (hartree_convergence_parameter):      2.81607232 bohr.

  Fractional coordinates:
                         L1                L2                L3
       atom_frac         0.00000000        0.00000000        0.00000000  Li
       atom_frac         0.00000000        0.50000000        0.50000000  Li
       atom_frac         0.50000000        0.00000000        0.50000000  Li
       atom_frac         0.50000000        0.50000000        0.00000000  Li
       atom_frac         0.50000000        0.00000000        0.00000000  Cl
       atom_frac         0.50000000        0.50000000        0.50000000  Cl
       atom_frac         0.00000000        0.00000000        0.50000000  Cl
       atom_frac         0.00000000        0.50000000        0.00000000  Cl

  Number of empty states per atom not set in control.in - providing a guess from actual geometry.
  | Total number of empty states used during s.c.f. cycle:       18
  If you use a very high smearing, use empty_states (per atom!) in control.in to increase this value.

  Structure-dependent array size parameters: 
  | Maximum number of distinct radial functions  :       29
  | Maximum number of basis functions            :      116
  | Number of Kohn-Sham states (occupied + empty):       58
------------------------------------------------------------

------------------------------------------------------------
          Preparing all fixed parts of the calculation.
------------------------------------------------------------
  Determining machine precision:
    2.225073858507201E-308
  Setting up grids for atomic and cluster calculations.

  Creating wave function, potential, and density for free atoms.

  Species: Li

  List of occupied orbitals and eigenvalues:
    n    l              occ      energy [Ha]    energy [eV]
    1    0           2.0000        -1.876896       -51.0729
    2    0           1.0000        -0.084105        -2.2886


  Species: P

  List of occupied orbitals and eigenvalues:
    n    l              occ      energy [Ha]    energy [eV]
    1    0           2.0000       -76.351489     -2077.6297
    2    0           2.0000        -6.353717      -172.8934
    3    0           2.0000        -0.506059       -13.7706
    2    1           6.0000        -4.569386      -124.3393
    3    1           3.0000        -0.198107        -5.3908


  Species: S

  List of occupied orbitals and eigenvalues:
    n    l              occ      energy [Ha]    energy [eV]
    1    0           2.0000       -88.105825     -2397.4815
    2    0           2.0000        -7.730144      -210.3479
    3    0           2.0000        -0.627748       -17.0819
    2    1           6.0000        -5.747971      -156.4103
    3    1           4.0000        -0.255786        -6.9603


  Species: Cl

  List of occupied orbitals and eigenvalues:
    n    l              occ      energy [Ha]    energy [eV]
    1    0           2.0000      -100.709620     -2740.4482
    2    0           2.0000        -9.221874      -250.9399
    3    0           2.0000        -0.753366       -20.5001
    2    1           6.0000        -7.038743      -191.5339
    3    1           5.0000        -0.315359        -8.5813

  Creating fixed part of basis set: Ionic, confined, hydrogenic.
 
  Li                   hydrogenic:
 
  List of hydrogenic basis orbitals: 
    n    l      effective z      eigenvalue [eV]  inner max. [A]     outer max. [A]     outer radius [A]   
    2    1         1.600000        -8.6069           1.303334           1.303334           4.591005
    2    0         2.000000       -13.5631           0.203259           1.385485           4.591005
    3    2         2.600000        -9.9241           1.769240           1.769240           4.591005
 
 
  P                    ion:

  List of free ionic orbitals and eigenvalues:
    n    l      energy [Ha]    energy [eV]
    1    0       -77.297133     -2103.3620
    2    0        -7.273914      -197.9333
    3    0        -1.267536       -34.4914
    2    1        -5.491316      -149.4263
    3    1        -0.913470       -24.8568


  List of ionic basis orbitals and eigenvalues:
    n    l      energy [Ha]    energy [eV]    outer radius [A]
    3    2        -0.457308       -12.4440       4.554583
    3    1        -0.913443       -24.8560       4.337222
    3    0        -1.267519       -34.4910       3.885335

 
  S                    ion:

  List of free ionic orbitals and eigenvalues:
    n    l      energy [Ha]    energy [eV]
    1    0       -89.127201     -2425.2745
    2    0        -8.724378      -237.4024
    3    0        -1.464668       -39.8556
    2    1        -6.744348      -183.5230
    3    1        -1.048520       -28.5317


  List of ionic basis orbitals and eigenvalues:
    n    l      energy [Ha]    energy [eV]    outer radius [A]
    3    2        -0.496135       -13.5005       4.539062
    3    0        -1.464653       -39.8552       3.642502

 
  S                    hydrogenic:
 
  List of hydrogenic basis orbitals: 
    n    l      effective z      eigenvalue [eV]  inner max. [A]     outer max. [A]     outer radius [A]   
    2    1         1.800000       -10.9749           1.168531           1.168531           4.594893
 
 
  Cl                   ion:

  List of free ionic orbitals and eigenvalues:
    n    l      energy [Ha]    energy [eV]
    1    0      -101.807232     -2770.3157
    2    0       -10.290876      -280.0290
    3    0        -1.664625       -45.2967
    2    1        -8.110237      -220.6908
    3    1        -1.183915       -32.2160


  List of ionic basis orbitals and eigenvalues:
    n    l      energy [Ha]    energy [eV]    outer radius [A]
    3    2        -0.529186       -14.3999       4.541334
    3    0        -1.664610       -45.2963       3.428237

 
  Cl                   hydrogenic:
 
  List of hydrogenic basis orbitals: 
    n    l      effective z      eigenvalue [eV]  inner max. [A]     outer max. [A]     outer radius [A]   
    2    1         1.900000       -12.2492           1.113321           1.113321           4.597192
 

  Adding cutoff potential to free-atom effective potential.
  Creating atomic-like basis functions for current effective potential.

  Species Li                  :

  List of atomic basis orbitals and eigenvalues:
    n    l      energy [Ha]    energy [eV]    outer radius [A]
    1    0        -1.876896       -51.0729       4.062706
    2    0        -0.084105        -2.2886       4.591005


  Species P                   :

  List of atomic basis orbitals and eigenvalues:
    n    l      energy [Ha]    energy [eV]    outer radius [A]
    1    0       -76.351489     -2077.6297       0.736837
    2    0        -6.353717      -172.8934       2.532824
    3    0        -0.506059       -13.7706       4.499242
    2    1        -4.569386      -124.3393       2.862183
    3    1        -0.198107        -5.3908       4.554583


  Species S                   :

  List of atomic basis orbitals and eigenvalues:
    n    l      energy [Ha]    energy [eV]    outer radius [A]
    1    0       -88.105825     -2397.4815       0.682391
    2    0        -7.730144      -210.3479       2.317169
    3    0        -0.627748       -17.0819       4.483910
    2    1        -5.747971      -156.4103       2.555240
    3    1        -0.255786        -6.9603       4.539062


  Species Cl                  :

  List of atomic basis orbitals and eigenvalues:
    n    l      energy [Ha]    energy [eV]    outer radius [A]
    1    0      -100.709620     -2740.4482       0.642251
    2    0        -9.221874      -250.9399       2.128190
    3    0        -0.753366       -20.5001       4.431645
    2    1        -7.038743      -191.5339       2.346844
    3    1        -0.315359        -8.5813       4.541334

  Assembling full basis from fixed parts.
  | Species Li :   atomic orbital   1 s accepted.
  | Species Li :   atomic orbital   2 s accepted.
  | Species Li :    hydro orbital   2 s accepted.
  | Species Li :    hydro orbital   2 p accepted.
  | Species Li :    hydro orbital   3 d accepted.
  | Species P :   atomic orbital   1 s accepted.
  | Species P :   atomic orbital   2 s accepted.
  | Species P :    ionic orbital   3 s accepted.
  | Species P :   atomic orbital   3 s accepted.
  | Species P :   atomic orbital   2 p accepted.
  | Species P :    ionic orbital   3 p accepted.
  | Species P :   atomic orbital   3 p accepted.
  | Species P :    ionic orbital   3 d accepted.
  | Species S :   atomic orbital   1 s accepted.
  | Species S :   atomic orbital   2 s accepted.
  | Species S :    ionic orbital   3 s accepted.
  | Species S :   atomic orbital   3 s accepted.
  | Species S :   atomic orbital   2 p accepted.
  | Species S :   atomic orbital   3 p accepted.
  | Species S :    hydro orbital   2 p accepted.
  | Species S :    ionic orbital   3 d accepted.
  | Species Cl :   atomic orbital   1 s accepted.
  | Species Cl :   atomic orbital   2 s accepted.
  | Species Cl :    ionic orbital   3 s accepted.
  | Species Cl :   atomic orbital   3 s accepted.
  | Species Cl :   atomic orbital   2 p accepted.
  | Species Cl :   atomic orbital   3 p accepted.
  | Species Cl :    hydro orbital   2 p accepted.
  | Species Cl :    ionic orbital   3 d accepted.
 
  Basis size parameters after reduction:
  | Total number of radial functions:       29
  | Total number of basis functions :      116
 
  Per-task memory consumption for arrays in subroutine allocate_ext:
  |           7.588648MB.
  Testing on-site integration grid accuracy.
  |  Species  Function  <phi|h_atom|phi> (log., in eV)  <phi|h_atom|phi> (rad., in eV)
           1        1                -51.0729407432                -51.0729328795
           1        2                 -2.3261068990                 -2.3227046518
           1        3                 17.1966930198                 17.2358027191 ***
           1        4                  0.3867256281                  0.3982841734
           1        5                  6.2743141416                  6.2817896417
           2        6              -2077.6297159538              -2077.6288551184
           2        7               -172.8934457906               -172.8934403880
           2        8                -13.4653967551                -13.4655200798
           2        9                  6.4162845277                  6.4013396720
           2       10               -124.3393201040               -124.3393200061
           2       11                 -4.7560266034                 -4.7560495157
           2       12                  6.5873401476                  6.4958904717 ***
           2       13                  5.2911719464                  5.2826493609
           3       14              -2397.4814915323              -2397.4804563634
           3       15               -210.3479335736               -210.3479265952
           3       16                -16.8079362322                -16.8079092816
           3       17                  7.5772439785                  7.5675998324
           3       18               -156.4102581151               -156.4102580951
           3       19                 -6.9617737483                 -6.9640288036
           3       20                  7.5696988470                  7.5151244831 ***
           3       21                  6.0973034823                  6.0928113248
           4       22              -2740.4481953768              -2740.4469735573
           4       23               -250.9399497423               -250.9399403187
           4       24                -20.2462734235                -20.2462512680
           4       25                  8.9460051782                  8.9510436705
           4       26               -191.5339459398               -191.5339455009
           4       27                 -8.5819075957                 -8.5827488985
           4       28                  8.1339828089                  8.0979459360 ***
           4       29                  7.0302175114                  7.0277664253
 * Note: Onsite integrals marked "***" above are less accurate than
 * onsite_accuracy_threshold =    0.03000 eV. Usually, this is harmless.
 * When in doubt, tighten the "radial" and/or "radial_multiplier" flags to check.

  Preparing densities etc. for the partition functions (integrals / Hartree potential).

  Preparations completed.
  max(cpu_time)          :      0.413 s.
  Wall clock time (cpu1) :      0.410 s.
------------------------------------------------------------

------------------------------------------------------------
          Begin self-consistency loop: Initialization.

          Date     :  20220721, Time     :  125314.899
------------------------------------------------------------

  Initializing index lists of integration centers etc. from given atomic structure:
  Mapping all atomic coordinates to central unit cell.

  Initializing the k-points
          Using symmetry for reducing the k-points
  | k-points reduced from:      216 to      112
  | Number of k-points                             :       112
  The eigenvectors in the calculations are COMPLEX.
  | K-points in task   0:         5
  | K-points in task   1:         6
  | K-points in task   2:         6
  | K-points in task   3:         6
  | K-points in task   4:         6
  | K-points in task   5:         6
  | K-points in task   6:         6
  | K-points in task   7:         6
  | K-points in task   8:         6
  | K-points in task   9:         6
  | K-points in task  10:         6
  | K-points in task  11:         6
  | K-points in task  12:         6
  | K-points in task  13:         5
  | K-points in task  14:         5
  | K-points in task  15:         5
  | K-points in task  16:         5
  | K-points in task  17:         5
  | K-points in task  18:         5
  | K-points in task  19:         5
  | Number of basis functions in the Hamiltonian integrals :      3057
  | Number of basis functions in a single unit cell        :       116
  | Number of centers in hartree potential         :      1256
  | Number of centers in hartree multipole         :       920
  | Number of centers in electron density summation:       672
  | Number of centers in basis integrals           :       696
  | Number of centers in integrals                 :       275
  | Number of centers in hamiltonian               :       672
  | Consuming        206 KiB for k_phase.
  | Number of super-cells (origin) [n_cells]                     :         729
  | Number of super-cells (after PM_index) [n_cells]             :         118
  | Number of super-cells in hamiltonian [n_cells_in_hamiltonian]:         118
  | Size of matrix packed + index [n_hamiltonian_matrix_size] :      280941
  Partitioning the integration grid into batches with parallel hashing+maxmin method.
  | Number of batches:      884
  | Maximal batch size:     113
  | Minimal batch size:      55
  | Average batch size:      68.760
  | Standard deviation of batch sizes:      14.461

  Integration load balanced across    20 MPI tasks.
  Work distribution over tasks is as follows:
  Task     0 has       3042 integration points.
  Task     1 has       3017 integration points.
  Task     2 has       3022 integration points.
  Task     3 has       3050 integration points.
  Task     4 has       3036 integration points.
  Task     5 has       3061 integration points.
  Task     6 has       3054 integration points.
  Task     7 has       3033 integration points.
  Task     8 has       3070 integration points.
  Task     9 has       3036 integration points.
  Task    10 has       3043 integration points.
  Task    11 has       3027 integration points.
  Task    12 has       3023 integration points.
  Task    13 has       3050 integration points.
  Task    14 has       3013 integration points.
  Task    15 has       3044 integration points.
  Task    16 has       3055 integration points.
  Task    17 has       3028 integration points.
  Task    18 has       3061 integration points.
  Task    19 has       3019 integration points.
  Initializing partition tables, free-atom densities, potentials, etc. across the integration grid (initialize_grid_storage).
  | initialize_grid_storage: Actual outermost partition radius vs. multipole_radius_free
  | (-- VB: in principle, multipole_radius_free should be larger, hence this output)
  | Species        1: Confinement radius =              4.999999999999999 AA, multipole_radius_free =              5.001180127821857 AA.
  | Species        1: outer_partition_radius set to              5.001180127821857 AA .
  | Species        2: Confinement radius =              4.999999999999999 AA, multipole_radius_free =              5.022530438398565 AA.
  | Species        2: outer_partition_radius set to              5.022530438398565 AA .
  | Species        3: Confinement radius =              4.999999999999999 AA, multipole_radius_free =              5.005414751018925 AA.
  | Species        3: outer_partition_radius set to              5.005414751018925 AA .
  | Species        4: Confinement radius =              4.999999999999999 AA, multipole_radius_free =              5.007919576009533 AA.
  | Species        4: outer_partition_radius set to              5.007919576009533 AA .
  | Original list of interatomic distances with         696 x        696 entries is created.
  | Net number of integration points:    60784
  | of which are non-zero points    :    50080
  | Numerical average free-atom electrostatic potential    :    -20.26112889 eV
  Renormalizing the initial density to the exact electron count on the 3D integration grid.
  | Initial density: Formal number of electrons (from input files) :      80.0000000000
  | Integrated number of electrons on 3D grid     :      80.0141553516
  | Charge integration error                      :       0.0141553516
  | Normalization factor for density and gradient :       0.9998230894
  Obtaining max. number of non-zero basis functions in each batch (get_n_compute_maxes).
  | Maximal number of non-zero basis functions:      814 in task     0
  | Maximal number of non-zero basis functions:      798 in task     1
  | Maximal number of non-zero basis functions:      801 in task     2
  | Maximal number of non-zero basis functions:      814 in task     3
  | Maximal number of non-zero basis functions:      812 in task     4
  | Maximal number of non-zero basis functions:      801 in task     5
  | Maximal number of non-zero basis functions:      783 in task     6
  | Maximal number of non-zero basis functions:      764 in task     7
  | Maximal number of non-zero basis functions:      792 in task     8
  | Maximal number of non-zero basis functions:      791 in task     9
  | Maximal number of non-zero basis functions:      792 in task    10
  | Maximal number of non-zero basis functions:      772 in task    11
  | Maximal number of non-zero basis functions:      812 in task    12
  | Maximal number of non-zero basis functions:      783 in task    13
  | Maximal number of non-zero basis functions:      801 in task    14
  | Maximal number of non-zero basis functions:      792 in task    15
  | Maximal number of non-zero basis functions:      773 in task    16
  | Maximal number of non-zero basis functions:      803 in task    17
  | Maximal number of non-zero basis functions:      812 in task    18
  | Maximal number of non-zero basis functions:      783 in task    19
  Allocating        0.538 MB for KS_eigenvector_complex
  Integrating Hamiltonian matrix: batch-based integration.
  Time summed over all CPUs for integration: real work        7.109 s, elapsed        7.332 s
  Integrating overlap matrix.
  Time summed over all CPUs for integration: real work        5.197 s, elapsed        5.404 s
  Decreasing sparse matrix size:
   Tolerance:  9.999999824516700E-014
   Hamiltonian matrix
  | Array has   190386 nonzero elements out of   280941 elements
  | Sparsity factor is 0.322
   Overlap matrix
  | Array has   181972 nonzero elements out of   280941 elements
  | Sparsity factor is 0.352
  New size of hamiltonian matrix:      191141

  Updating Kohn-Sham eigenvalues and eigenvectors using ELSI and the ELPA eigensolver.
  Overlap matrix is nonsingular
  | Lowest eigenvalue of overlap  :  0.31E-03
  | Highest eigenvalue of overlap :  0.14E+02
  Finished singularity check of overlap matrix
  | Time :     0.002 s
  Finished Cholesky decomposition
  | Time :     0.000 s
  Finished transformation to standard eigenproblem
  | Time :     0.001 s
  Starting LAPACK eigensolver
  Finished solving standard eigenproblem
  | Time :     0.002 s
  Finished back-transformation of eigenvectors
  | Time :     0.000 s

  Obtaining occupation numbers and chemical potential using ELSI.
  | Chemical potential (Fermi level):    -9.80706084eV
  Writing Kohn-Sham eigenvalues.
  K-point:       1 at    0.000000    0.000000    0.000000 (in units of recip. lattice)

  State    Occupation    Eigenvalue [Ha]    Eigenvalue [eV]
      1       2.00000        -100.803987        -2743.01606
      2       2.00000        -100.803987        -2743.01606
      3       2.00000        -100.803987        -2743.01606
      4       2.00000        -100.803987        -2743.01606
      5       2.00000          -9.321923         -253.66242
      6       2.00000          -9.321923         -253.66242
      7       2.00000          -9.321923         -253.66242
      8       2.00000          -9.321923         -253.66242
      9       2.00000          -7.138081         -194.23706
     10       2.00000          -7.138081         -194.23706
     11       2.00000          -7.138081         -194.23706
     12       2.00000          -7.138081         -194.23706
     13       2.00000          -7.138081         -194.23706
     14       2.00000          -7.138081         -194.23706
     15       2.00000          -7.138081         -194.23706
     16       2.00000          -7.138081         -194.23706
     17       2.00000          -7.138081         -194.23706
     18       2.00000          -7.138081         -194.23706
     19       2.00000          -7.138081         -194.23706
     20       2.00000          -7.138081         -194.23706
     21       2.00000          -1.935270          -52.66137
     22       2.00000          -1.932074          -52.57442
     23       2.00000          -1.932074          -52.57442
     24       2.00000          -1.932074          -52.57442
     25       2.00000          -0.990496          -26.95277
     26       2.00000          -0.875685          -23.82859
     27       2.00000          -0.875685          -23.82859
     28       2.00000          -0.875685          -23.82859
     29       2.00000          -0.633664          -17.24287
     30       2.00000          -0.633664          -17.24287
     31       2.00000          -0.633664          -17.24287
     32       2.00000          -0.474455          -12.91057
     33       2.00000          -0.474455          -12.91057
     34       2.00000          -0.474455          -12.91057
     35       2.00000          -0.474455          -12.91057
     36       2.00000          -0.474455          -12.91057
     37       2.00000          -0.474455          -12.91057
     38       2.00000          -0.362881           -9.87449
     39       2.00000          -0.362881           -9.87449
     40       2.00000          -0.362881           -9.87449
     41       0.00000          -0.138866           -3.77873
     42       0.00000          -0.138866           -3.77873
     43       0.00000          -0.138866           -3.77873
     44       0.00000          -0.021617           -0.58823
     45       0.00000          -0.021617           -0.58823
     46       0.00000          -0.021617           -0.58823
     47       0.00000           0.062506            1.70088
     48       0.00000           0.062506            1.70088
     49       0.00000           0.062506            1.70088
     50       0.00000           0.114725            3.12183
     51       0.00000           0.208874            5.68375
     52       0.00000           0.208874            5.68375
     53       0.00000           0.333298            9.06950
     54       0.00000           0.333298            9.06950
     55       0.00000           0.333298            9.06950
     56       0.00000           0.353224            9.61170
     57       0.00000           0.353224            9.61170
     58       0.00000           0.353224            9.61170

  What follows are estimated values for band gap, HOMO, LUMO, etc.
  | They are estimated on a discrete k-point grid and not necessarily exact.
  | For converged numbers, create a DOS and/or band structure plot on a denser k-grid.

  Highest occupied state (VBM) at     -9.85390203 eV (relative to internal zero)
  | Occupation number:      2.00000000
  | K-point:      19 at    0.000000    0.833333    0.166667 (in units of recip. lattice)

  Lowest unoccupied state (CBM) at    -3.77872845 eV (relative to internal zero)
  | Occupation number:      0.00000000
  | K-point:       1 at    0.000000    0.000000    0.000000 (in units of recip. lattice)

  ESTIMATED overall HOMO-LUMO gap:      6.07517358 eV between HOMO at k-point 19 and LUMO at k-point 1
  | This appears to be an indirect band gap.
  | Smallest direct gap :      6.09576504 eV for k_point 1 at    0.000000    0.000000    0.000000 (in units of recip. lattice)
  The gap value is above 0.2 eV. Unless you are using a very sparse k-point grid,
  this system is most likely an insulator or a semiconductor.
  Calculating total energy contributions from superposition of free atom densities.

  Total energy components:
  | Sum of eigenvalues            :       -1086.71914561 Ha      -29571.13251484 eV
  | XC energy correction          :        -120.67561949 Ha       -3283.75068168 eV
  | XC potential correction       :         156.01740776 Ha        4245.44967138 eV
  | Free-atom electrostatic energy:        -818.97825343 Ha      -22285.53215117 eV
  | Hartree energy correction     :           0.00000000 Ha           0.00000000 eV
  | Entropy correction            :          -0.00000000 Ha          -0.00000000 eV
  | ---------------------------
  | Total energy                  :       -1870.35561077 Ha      -50894.96567631 eV
  | Total energy, T -> 0          :       -1870.35561077 Ha      -50894.96567631 eV  <-- do not rely on this value for anything but (periodic) metals
  | Electronic free energy        :       -1870.35561077 Ha      -50894.96567631 eV

  Derived energy quantities:
  | Kinetic energy                :        1870.77337663 Ha       50906.33366397 eV
  | Electrostatic energy          :       -3620.45336791 Ha      -98517.54865860 eV
  | Energy correction for multipole
  | error in Hartree potential    :           0.00000000 Ha           0.00000000 eV
  | Sum of eigenvalues per atom                           :       -3696.39156435 eV
  | Total energy (T->0) per atom                          :       -6361.87070954 eV  <-- do not rely on this value for anything but (periodic) metals
  | Electronic free energy per atom                       :       -6361.87070954 eV
  Initialize hartree_potential_storage
  Max. number of atoms included in rho_multipole:            8

  End scf initialization - timings             :  max(cpu_time)    wall_clock(cpu1)
  | Time for scf. initialization               :        1.163 s           1.164 s
  | Boundary condition initialization          :        0.070 s           0.070 s
  | Integration                                :        0.653 s           0.653 s
  | Solution of K.-S. eqns.                    :        0.048 s           0.047 s
  | Grid partitioning                          :        0.045 s           0.044 s
  | Preloading free-atom quantities on grid    :        0.008 s           0.018 s
  | Free-atom superposition energy             :        0.030 s           0.030 s
  | Total energy evaluation                    :        0.000 s           0.000 s

  Partial memory accounting:
  | Current value for overall tracked memory usage on task 0  :           4.362 MB
  | Peak value for overall tracked memory usage on task 0     :          13.686 MB after allocating wave
  | Largest tracked array allocation on task 0 so far         :           5.301 MB  when allocating hamiltonian_shell
  Note:  These values currently only include a subset of arrays which are explicitly tracked.
  The "true" memory usage will be greater.
------------------------------------------------------------

------------------------------------------------------------
          Begin self-consistency iteration #    1

  Date     :  20220721, Time     :  125316.063
------------------------------------------------------------
  Evaluating new KS density using the density matrix
  Evaluating density matrix
  Time summed over all CPUs for getting density from density matrix: real work       12.759 s, elapsed       13.083 s
  Integration grid: deviation in total charge (<rho> - N_e) =  -1.904255E-12
  Pulay mixing of updated and previous charge densities.

  Evaluating partitioned Hartree potential by multipole expansion.
  | Analytical far-field extrapolation by fixed multipoles:
  | Hartree multipole sum: apparent total charge =   0.146737E-01
  Summing up the Hartree potential.
  | Estimated reciprocal-space cutoff momentum G_max:         3.36603770 bohr^-1 .
  | Reciprocal lattice points for long-range Hartree potential:     304
  Time summed over all CPUs for potential: real work        3.756 s, elapsed        4.350 s
  | RMS charge density error from multipole expansion :   0.105436E-02
  | Average real-space part of the electrostatic potential :     -0.00290151 eV

  Integrating Hamiltonian matrix: batch-based integration.
  Time summed over all CPUs for integration: real work        6.976 s, elapsed        7.214 s

  Updating Kohn-Sham eigenvalues and eigenvectors using ELSI and the ELPA eigensolver.
  Finished Cholesky decomposition
  | Time :     0.000 s
  Finished transformation to standard eigenproblem
  | Time :     0.001 s
  Starting LAPACK eigensolver
  Finished solving standard eigenproblem
  | Time :     0.002 s
  Finished back-transformation of eigenvectors
  | Time :     0.000 s

  Obtaining occupation numbers and chemical potential using ELSI.
  | Chemical potential (Fermi level):    -9.78830046eV
  Writing Kohn-Sham eigenvalues.
  K-point:       1 at    0.000000    0.000000    0.000000 (in units of recip. lattice)

  State    Occupation    Eigenvalue [Ha]    Eigenvalue [eV]
      1       2.00000        -100.805900        -2743.06811
      2       2.00000        -100.805900        -2743.06811
      3       2.00000        -100.805900        -2743.06811
      4       2.00000        -100.805900        -2743.06811
      5       2.00000          -9.321490         -253.65066
      6       2.00000          -9.321490         -253.65066
      7       2.00000          -9.321490         -253.65066
      8       2.00000          -9.321490         -253.65066
      9       2.00000          -7.137763         -194.22841
     10       2.00000          -7.137763         -194.22841
     11       2.00000          -7.137763         -194.22841
     12       2.00000          -7.137763         -194.22841
     13       2.00000          -7.137763         -194.22841
     14       2.00000          -7.137763         -194.22841
     15       2.00000          -7.137763         -194.22841
     16       2.00000          -7.137763         -194.22841
     17       2.00000          -7.137763         -194.22841
     18       2.00000          -7.137763         -194.22840
     19       2.00000          -7.137763         -194.22840
     20       2.00000          -7.137763         -194.22840
     21       2.00000          -1.936258          -52.68825
     22       2.00000          -1.933073          -52.60159
     23       2.00000          -1.933073          -52.60159
     24       2.00000          -1.933073          -52.60159
     25       2.00000          -0.989893          -26.93637
     26       2.00000          -0.874936          -23.80822
     27       2.00000          -0.874936          -23.80822
     28       2.00000          -0.874936          -23.80822
     29       2.00000          -0.633189          -17.22994
     30       2.00000          -0.633189          -17.22994
     31       2.00000          -0.633189          -17.22994
     32       2.00000          -0.473890          -12.89519
     33       2.00000          -0.473890          -12.89519
     34       2.00000          -0.473890          -12.89519
     35       2.00000          -0.473890          -12.89519
     36       2.00000          -0.473890          -12.89519
     37       2.00000          -0.473890          -12.89519
     38       2.00000          -0.362198           -9.85591
     39       2.00000          -0.362198           -9.85591
     40       2.00000          -0.362198           -9.85591
     41       0.00000          -0.138455           -3.76755
     42       0.00000          -0.138455           -3.76755
     43       0.00000          -0.138455           -3.76755
     44       0.00000          -0.021311           -0.57991
     45       0.00000          -0.021311           -0.57991
     46       0.00000          -0.021311           -0.57991
     47       0.00000           0.062947            1.71287
     48       0.00000           0.062947            1.71287
     49       0.00000           0.062947            1.71287
     50       0.00000           0.115221            3.13531
     51       0.00000           0.209406            5.69823
     52       0.00000           0.209406            5.69823
     53       0.00000           0.333935            9.08684
     54       0.00000           0.333935            9.08684
     55       0.00000           0.333935            9.08684
     56       0.00000           0.353209            9.61130
     57       0.00000           0.353209            9.61130
     58       0.00000           0.353209            9.61130

  What follows are estimated values for band gap, HOMO, LUMO, etc.
  | They are estimated on a discrete k-point grid and not necessarily exact.
  | For converged numbers, create a DOS and/or band structure plot on a denser k-grid.

  Highest occupied state (VBM) at     -9.83509371 eV (relative to internal zero)
  | Occupation number:      2.00000000
  | K-point:      22 at    0.166667    0.000000    0.166667 (in units of recip. lattice)

  Lowest unoccupied state (CBM) at    -3.76755146 eV (relative to internal zero)
  | Occupation number:      0.00000000
  | K-point:       1 at    0.000000    0.000000    0.000000 (in units of recip. lattice)

  ESTIMATED overall HOMO-LUMO gap:      6.06754225 eV between HOMO at k-point 22 and LUMO at k-point 1
  | This appears to be an indirect band gap.
  | Smallest direct gap :      6.08835463 eV for k_point 1 at    0.000000    0.000000    0.000000 (in units of recip. lattice)
  The gap value is above 0.2 eV. Unless you are using a very sparse k-point grid,
  this system is most likely an insulator or a semiconductor.

  Total energy components:
  | Sum of eigenvalues            :       -1086.71202047 Ha      -29570.93862991 eV
  | XC energy correction          :        -120.69222964 Ha       -3284.20266697 eV
  | XC potential correction       :         156.03867031 Ha        4246.02825469 eV
  | Free-atom electrostatic energy:        -818.97825343 Ha      -22285.53215117 eV
  | Hartree energy correction     :          -0.01118543 Ha          -0.30437103 eV
  | Entropy correction            :          -0.00000000 Ha          -0.00000000 eV
  | ---------------------------
  | Total energy                  :       -1870.35501866 Ha      -50894.94956440 eV
  | Total energy, T -> 0          :       -1870.35501866 Ha      -50894.94956440 eV  <-- do not rely on this value for anything but (periodic) metals
  | Electronic free energy        :       -1870.35501866 Ha      -50894.94956440 eV

  Derived energy quantities:
  | Kinetic energy                :        1870.46493207 Ha       50897.94046036 eV
  | Electrostatic energy          :       -3620.12772109 Ha      -98508.68735779 eV
  | Energy correction for multipole
  | error in Hartree potential    :           0.00085178 Ha           0.02317804 eV
  | Sum of eigenvalues per atom                           :       -3696.36732874 eV
  | Total energy (T->0) per atom                          :       -6361.86869555 eV  <-- do not rely on this value for anything but (periodic) metals
  | Electronic free energy per atom                       :       -6361.86869555 eV

  Self-consistency convergence accuracy:
  | Change of charge density      :  0.1495E+00
  | Change of sum of eigenvalues  :  0.1939E+00 eV
  | Change of total energy        :  0.1611E-01 eV

  End self-consistency iteration #     1       :  max(cpu_time)    wall_clock(cpu1)
  | Time for this iteration                    :        1.418 s           1.418 s
  | Charge density update                      :        0.667 s           0.667 s
  | Density mixing & preconditioning           :        0.124 s           0.123 s
  | Hartree multipole update                   :        0.001 s           0.002 s
  | Hartree multipole summation                :        0.221 s           0.220 s
  | Integration                                :        0.366 s           0.366 s
  | Solution of K.-S. eqns.                    :        0.037 s           0.038 s
  | Total energy evaluation                    :        0.001 s           0.000 s

  Partial memory accounting:
  | Current value for overall tracked memory usage on task 0  :           4.362 MB
  | Peak value for overall tracked memory usage on task 0     :          14.078 MB after allocating gradient_basis_wave
  | Largest tracked array allocation on task 0 so far         :           5.301 MB  when allocating hamiltonian_shell
  Note:  These values currently only include a subset of arrays which are explicitly tracked.
  The "true" memory usage will be greater.
------------------------------------------------------------

------------------------------------------------------------
          Begin self-consistency iteration #    2

  Date     :  20220721, Time     :  125317.481
------------------------------------------------------------
  Evaluating new KS density using the density matrix
  Evaluating density matrix
  Time summed over all CPUs for getting density from density matrix: real work       12.983 s, elapsed       13.212 s
  Integration grid: deviation in total charge (<rho> - N_e) =  -2.032152E-12
  Pulay mixing of updated and previous charge densities.

  Evaluating partitioned Hartree potential by multipole expansion.
  | Analytical far-field extrapolation by fixed multipoles:
  | Hartree multipole sum: apparent total charge =   0.244010E-01
  Summing up the Hartree potential.
  Time summed over all CPUs for potential: real work        4.074 s, elapsed        4.657 s
  | RMS charge density error from multipole expansion :   0.212037E-01
  | Average real-space part of the electrostatic potential :      0.28729900 eV

  Integrating Hamiltonian matrix: batch-based integration.
  Time summed over all CPUs for integration: real work        6.934 s, elapsed        7.165 s

  Updating Kohn-Sham eigenvalues and eigenvectors using ELSI and the ELPA eigensolver.
  Finished Cholesky decomposition
  | Time :     0.000 s
  Finished transformation to standard eigenproblem
  | Time :     0.001 s
  Starting LAPACK eigensolver
  Finished solving standard eigenproblem
  | Time :     0.002 s
  Finished back-transformation of eigenvectors
  | Time :     0.000 s

  Obtaining occupation numbers and chemical potential using ELSI.
  | Chemical potential (Fermi level):    -9.15974552eV
  What follows are estimated values for band gap, HOMO, LUMO, etc.
  | They are estimated on a discrete k-point grid and not necessarily exact.
  | For converged numbers, create a DOS and/or band structure plot on a denser k-grid.

  Highest occupied state (VBM) at     -9.20659562 eV (relative to internal zero)
  | Occupation number:      2.00000000
  | K-point:      19 at    0.000000    0.833333    0.166667 (in units of recip. lattice)

  Lowest unoccupied state (CBM) at    -3.52843619 eV (relative to internal zero)
  | Occupation number:      0.00000000
  | K-point:       1 at    0.000000    0.000000    0.000000 (in units of recip. lattice)

  ESTIMATED overall HOMO-LUMO gap:      5.67815943 eV between HOMO at k-point 19 and LUMO at k-point 1
  | This appears to be an indirect band gap.
  | Smallest direct gap :      5.70691024 eV for k_point 1 at    0.000000    0.000000    0.000000 (in units of recip. lattice)
  The gap value is above 0.2 eV. Unless you are using a very sparse k-point grid,
  this system is most likely an insulator or a semiconductor.

  Checking to see if s.c.f. parameters should be adjusted.
  The system likely has a gap. Increased the default Pulay mixing parameter (charge_mix_param). Value:   0.200000 .
  Kept the default occupation width. Value:   0.010000 eV.

  Total energy components:
  | Sum of eigenvalues            :       -1083.15046000 Ha      -29474.02363841 eV
  | XC energy correction          :        -121.02487405 Ha       -3293.25438187 eV
  | XC potential correction       :         156.46309533 Ha        4257.57744706 eV
  | Free-atom electrostatic energy:        -818.97825343 Ha      -22285.53215117 eV
  | Hartree energy correction     :          -3.65493766 Ha         -99.45591391 eV
  | Entropy correction            :          -0.00000000 Ha          -0.00000000 eV
  | ---------------------------
  | Total energy                  :       -1870.34542981 Ha      -50894.68863830 eV
  | Total energy, T -> 0          :       -1870.34542981 Ha      -50894.68863830 eV  <-- do not rely on this value for anything but (periodic) metals
  | Electronic free energy        :       -1870.34542981 Ha      -50894.68863830 eV

  Derived energy quantities:
  | Kinetic energy                :        1874.05935598 Ha       50995.74971146 eV
  | Electrostatic energy          :       -3623.37991174 Ha      -98597.18396789 eV
  | Energy correction for multipole
  | error in Hartree potential    :           0.01701520 Ha           0.46300710 eV
  | Sum of eigenvalues per atom                           :       -3684.25295480 eV
  | Total energy (T->0) per atom                          :       -6361.83607979 eV  <-- do not rely on this value for anything but (periodic) metals
  | Electronic free energy per atom                       :       -6361.83607979 eV

  Self-consistency convergence accuracy:
  | Change of charge density      :  0.1422E+00
  | Change of sum of eigenvalues  :  0.9691E+02 eV
  | Change of total energy        :  0.2609E+00 eV

  End self-consistency iteration #     2       :  max(cpu_time)    wall_clock(cpu1)
  | Time for this iteration                    :        1.442 s           1.442 s
  | Charge density update                      :        0.673 s           0.673 s
  | Density mixing & preconditioning           :        0.131 s           0.131 s
  | Hartree multipole update                   :        0.001 s           0.002 s
  | Hartree multipole summation                :        0.236 s           0.236 s
  | Integration                                :        0.364 s           0.363 s
  | Solution of K.-S. eqns.                    :        0.036 s           0.037 s
  | Total energy evaluation                    :        0.000 s           0.000 s

  Partial memory accounting:
  | Current value for overall tracked memory usage on task 0  :           4.363 MB
  | Peak value for overall tracked memory usage on task 0     :          14.078 MB after allocating gradient_basis_wave
  | Largest tracked array allocation on task 0 so far         :           5.301 MB  when allocating hamiltonian_shell
  Note:  These values currently only include a subset of arrays which are explicitly tracked.
  The "true" memory usage will be greater.
------------------------------------------------------------

------------------------------------------------------------
          Begin self-consistency iteration #    3

  Date     :  20220721, Time     :  125318.924
------------------------------------------------------------
  Evaluating new KS density using the density matrix
  Evaluating density matrix
  Time summed over all CPUs for getting density from density matrix: real work       13.112 s, elapsed       13.376 s
  Integration grid: deviation in total charge (<rho> - N_e) =  -1.932676E-12
  Pulay mixing of updated and previous charge densities.

  Evaluating partitioned Hartree potential by multipole expansion.
  | Analytical far-field extrapolation by fixed multipoles:
  | Hartree multipole sum: apparent total charge =   0.237812E-01
  Summing up the Hartree potential.
  Time summed over all CPUs for potential: real work        4.077 s, elapsed        4.665 s
  | RMS charge density error from multipole expansion :   0.216255E-01
  | Average real-space part of the electrostatic potential :      0.29341136 eV

  Integrating Hamiltonian matrix: batch-based integration.
  Time summed over all CPUs for integration: real work        6.922 s, elapsed        7.166 s

  Updating Kohn-Sham eigenvalues and eigenvectors using ELSI and the ELPA eigensolver.
  Finished Cholesky decomposition
  | Time :     0.000 s
  Finished transformation to standard eigenproblem
  | Time :     0.001 s
  Starting LAPACK eigensolver
  Finished solving standard eigenproblem
  | Time :     0.002 s
  Finished back-transformation of eigenvectors
  | Time :     0.000 s

  Obtaining occupation numbers and chemical potential using ELSI.
  | Chemical potential (Fermi level):    -9.14128929eV
  What follows are estimated values for band gap, HOMO, LUMO, etc.
  | They are estimated on a discrete k-point grid and not necessarily exact.
  | For converged numbers, create a DOS and/or band structure plot on a denser k-grid.

  Highest occupied state (VBM) at     -9.18813868 eV (relative to internal zero)
  | Occupation number:      2.00000000
  | K-point:      20 at    0.000000    0.833333    0.833333 (in units of recip. lattice)

  Lowest unoccupied state (CBM) at    -3.52220940 eV (relative to internal zero)
  | Occupation number:      0.00000000
  | K-point:       1 at    0.000000    0.000000    0.000000 (in units of recip. lattice)

  ESTIMATED overall HOMO-LUMO gap:      5.66592929 eV between HOMO at k-point 20 and LUMO at k-point 1
  | This appears to be an indirect band gap.
[...]
  | Electronic free energy per atom                       :       -6361.83347400 eV

  atomic forces [eV/Ang]:
  -----------------------
  atom #    1
   Hellmann-Feynman              : -0.230225E-06  0.505235E-06 -0.112384E-06
   Ionic forces                  :  0.000000E+00  0.000000E+00  0.000000E+00
   Multipole                     :  0.195137E-08 -0.342529E-08  0.470652E-09
   Pulay + GGA                   :  0.000000E+00  0.000000E+00  0.000000E+00
   ----------------------------------------------------------------
   Total forces(   1)            : -0.228273E-06  0.501810E-06 -0.111914E-06
  atom #    2
   Hellmann-Feynman              : -0.236944E-06 -0.501748E-06 -0.711510E-07
   Ionic forces                  :  0.000000E+00  0.000000E+00  0.000000E+00
   Multipole                     :  0.171923E-08  0.339436E-08  0.124141E-09
   Pulay + GGA                   :  0.000000E+00  0.000000E+00  0.000000E+00
   ----------------------------------------------------------------
   Total forces(   2)            : -0.235224E-06 -0.498354E-06 -0.710269E-07
  atom #    3
   Hellmann-Feynman              :  0.750230E-07  0.533360E-06  0.917355E-07
   Ionic forces                  :  0.000000E+00  0.000000E+00  0.000000E+00
   Multipole                     : -0.132639E-08 -0.414515E-08 -0.727542E-11
   Pulay + GGA                   :  0.000000E+00  0.000000E+00  0.000000E+00
   ----------------------------------------------------------------
   Total forces(   3)            :  0.736966E-07  0.529215E-06  0.917283E-07
  atom #    4
   Hellmann-Feynman              :  0.418361E-06 -0.537761E-06  0.912568E-07
   Ionic forces                  :  0.000000E+00  0.000000E+00  0.000000E+00
   Multipole                     : -0.253296E-08  0.417893E-08 -0.598167E-09
   Pulay + GGA                   :  0.000000E+00  0.000000E+00  0.000000E+00
   ----------------------------------------------------------------
   Total forces(   4)            :  0.415828E-06 -0.533582E-06  0.906587E-07
  atom #    5
   Hellmann-Feynman              :  0.139588E-05  0.316509E-05  0.314010E-06
   Ionic forces                  :  0.000000E+00  0.000000E+00  0.000000E+00
   Multipole                     : -0.729508E-08 -0.153121E-07 -0.877559E-09
   Pulay + GGA                   :  0.000000E+00  0.000000E+00  0.000000E+00
   ----------------------------------------------------------------
   Total forces(   5)            :  0.138859E-05  0.314978E-05  0.313132E-06
  atom #    6
   Hellmann-Feynman              :  0.112774E-05 -0.312857E-05 -0.458448E-06
   Ionic forces                  :  0.000000E+00  0.000000E+00  0.000000E+00
   Multipole                     : -0.569541E-08  0.151492E-07  0.280630E-08
   Pulay + GGA                   :  0.000000E+00  0.000000E+00  0.000000E+00
   ----------------------------------------------------------------
   Total forces(   6)            :  0.112205E-05 -0.311342E-05 -0.455642E-06
  atom #    7
   Hellmann-Feynman              : -0.114487E-05  0.195004E-05  0.557710E-06
   Ionic forces                  :  0.000000E+00  0.000000E+00  0.000000E+00
   Multipole                     :  0.435066E-08 -0.103424E-07 -0.216356E-08
   Pulay + GGA                   :  0.000000E+00  0.000000E+00  0.000000E+00
   ----------------------------------------------------------------
   Total forces(   7)            : -0.114052E-05  0.193969E-05  0.555546E-06
  atom #    8
   Hellmann-Feynman              : -0.153910E-05 -0.196119E-05 -0.194765E-06
   Ionic forces                  :  0.000000E+00  0.000000E+00  0.000000E+00
   Multipole                     :  0.877140E-08  0.105424E-07  0.693492E-10
   Pulay + GGA                   :  0.000000E+00  0.000000E+00  0.000000E+00
   ----------------------------------------------------------------
   Total forces(   8)            : -0.153033E-05 -0.195065E-05 -0.194695E-06


  Self-consistency convergence accuracy:
  | Change of charge density      :  0.1713E-05
  | Change of sum of eigenvalues  :  0.6030E-05 eV
  | Change of total energy        : -0.3137E-08 eV
  | Change of forces              :  0.2123E-05 eV/A

  Writing Kohn-Sham eigenvalues.
  K-point:       1 at    0.000000    0.000000    0.000000 (in units of recip. lattice)

  State    Occupation    Eigenvalue [Ha]    Eigenvalue [eV]
      1       2.00000        -100.736740        -2741.18618
      2       2.00000        -100.736740        -2741.18618
      3       2.00000        -100.736740        -2741.18618
      4       2.00000        -100.736740        -2741.18618
      5       2.00000          -9.271834         -252.29945
      6       2.00000          -9.271834         -252.29945
      7       2.00000          -9.271834         -252.29945
      8       2.00000          -9.271834         -252.29945
      9       2.00000          -7.086292         -192.82783
     10       2.00000          -7.086292         -192.82783
     11       2.00000          -7.086292         -192.82783
     12       2.00000          -7.086292         -192.82782
     13       2.00000          -7.086292         -192.82782
     14       2.00000          -7.086292         -192.82782
     15       2.00000          -7.086292         -192.82782
     16       2.00000          -7.086292         -192.82782
     17       2.00000          -7.086292         -192.82782
     18       2.00000          -7.086292         -192.82781
     19       2.00000          -7.086292         -192.82781
     20       2.00000          -7.086292         -192.82781
     21       2.00000          -1.954805          -53.19295
     22       2.00000          -1.951804          -53.11129
     23       2.00000          -1.951804          -53.11129
     24       2.00000          -1.951804          -53.11129
     25       2.00000          -0.973799          -26.49843
     26       2.00000          -0.854073          -23.24051
     27       2.00000          -0.854073          -23.24051
     28       2.00000          -0.854073          -23.24051
     29       2.00000          -0.621920          -16.92331
     30       2.00000          -0.621920          -16.92331
     31       2.00000          -0.621920          -16.92331
     32       2.00000          -0.459289          -12.49788
     33       2.00000          -0.459289          -12.49788
     34       2.00000          -0.459289          -12.49788
     35       2.00000          -0.459289          -12.49788
     36       2.00000          -0.459289          -12.49788
     37       2.00000          -0.459289          -12.49788
     38       2.00000          -0.343360           -9.34329
     39       2.00000          -0.343360           -9.34329
     40       2.00000          -0.343360           -9.34329
     41       0.00000          -0.130420           -3.54890
     42       0.00000          -0.130420           -3.54890
     43       0.00000          -0.130420           -3.54890
     44       0.00000          -0.014717           -0.40048
     45       0.00000          -0.014717           -0.40048
     46       0.00000          -0.014717           -0.40048
     47       0.00000           0.072037            1.96023
     48       0.00000           0.072037            1.96023
     49       0.00000           0.072037            1.96023
     50       0.00000           0.129427            3.52190
     51       0.00000           0.221296            6.02176
     52       0.00000           0.221296            6.02176
     53       0.00000           0.349188            9.50188
     54       0.00000           0.349188            9.50188
     55       0.00000           0.349188            9.50188
     56       0.00000           0.351577            9.56690
     57       0.00000           0.351577            9.56690
     58       0.00000           0.351577            9.56690

  What follows are estimated values for band gap, HOMO, LUMO, etc.
  | They are estimated on a discrete k-point grid and not necessarily exact.
  | For converged numbers, create a DOS and/or band structure plot on a denser k-grid.

  Highest occupied state (VBM) at     -9.31563841 eV (relative to internal zero)
  | Occupation number:      2.00000000
  | K-point:      44 at    0.166667    0.833333    0.000000 (in units of recip. lattice)

  Lowest unoccupied state (CBM) at    -3.54890102 eV (relative to internal zero)
  | Occupation number:      0.00000000
  | K-point:       1 at    0.000000    0.000000    0.000000 (in units of recip. lattice)

  ESTIMATED overall HOMO-LUMO gap:      5.76673739 eV between HOMO at k-point 44 and LUMO at k-point 1
  | This appears to be an indirect band gap.
  | Smallest direct gap :      5.79438848 eV for k_point 1 at    0.000000    0.000000    0.000000 (in units of recip. lattice)
  The gap value is above 0.2 eV. Unless you are using a very sparse k-point grid,
  this system is most likely an insulator or a semiconductor.

  Self-consistency cycle converged.

  End self-consistency iteration #    94       :  max(cpu_time)    wall_clock(cpu1)
  | Time for this iteration                    :        1.747 s           1.747 s
  | Charge density & force component update    :        0.691 s           0.691 s
  | Density mixing                             :        0.001 s           0.001 s
  | Hartree multipole update                   :        0.001 s           0.001 s
  | Hartree multipole summation                :        0.649 s           0.649 s
  | Integration                                :        0.364 s           0.365 s
  | Solution of K.-S. eqns.                    :        0.038 s           0.038 s
  | Total energy evaluation                    :        0.001 s           0.002 s

  Partial memory accounting:
  | Current value for overall tracked memory usage on task 0  :           4.363 MB
  | Peak value for overall tracked memory usage on task 0     :          14.079 MB after allocating gradient_basis_wave
  | Largest tracked array allocation on task 0 so far         :           5.301 MB  when allocating hamiltonian_shell
  Note:  These values currently only include a subset of arrays which are explicitly tracked.
  The "true" memory usage will be greater.
------------------------------------------------------------
  |------------------------------------------
  | Final ELSI Output
  |------------------------------------------
  | Number of basis functions :          116
  | Number of electrons       :         80.0
  | Number of states          :           58
  | Solver                    :         ELPA
  | Parallel mode             :  SINGLE_PROC
  | Matrix format             :  BLACS_DENSE
  |------------------------------------------
  | ELSI Project (c)  elsi-interchange.org
  |------------------------------------------
  Removing unitary transformations (pure translations, rotations) from forces on atoms.
  Atomic forces before filtering:
  | Net force on center of mass :  -0.134182E-06  0.244840E-07  0.217787E-06 eV/A
  Atomic forces after filtering:
  | Net force on center of mass :   0.340283E-21  0.000000E+00  0.000000E+00 eV/A

  Energy and forces in a compact form:
  | Total energy uncorrected      :         -0.508946677919939E+05 eV
  | Total energy corrected        :         -0.508946677919939E+05 eV  <-- do not rely on this value for anything but (periodic) metals
  | Electronic free energy        :         -0.508946677919939E+05 eV
  Total atomic forces (unitary forces cleaned) [eV/Ang]:
  |   1         -0.211500644004078E-06          0.498749358408232E-06         -0.139137159120452E-06
  |   2         -0.218451508966626E-06         -0.501414341812093E-06         -0.982502762083229E-07
  |   3          0.904694074403207E-07          0.526154778756171E-06          0.645048674405003E-07
  |   4          0.432600456284114E-06         -0.536642154924143E-06          0.634352806901552E-07
  |   5          0.140535889135541E-05          0.314671506929999E-05          0.285908767825058E-06
  |   6          0.113882090495989E-05         -0.311648372711620E-05         -0.482865563474352E-06
  |   7         -0.112374494314432E-05          0.193663400898898E-05          0.528322664300334E-06
  |   8         -0.151355256392470E-05         -0.195371299160094E-05         -0.221918581452921E-06

  ------------------------------------ 
  Start decomposition of the XC Energy 
  ------------------------------------ 
  X and C from original XC functional choice 
  Hartree-Fock Energy :          0.000000000 Ha              0.000000000 eV
  X Energy            :       -117.775761115 Ha          -3204.841520481 eV
  C Energy            :         -3.161314313 Ha            -86.023739286 eV
  Total XC Energy     :       -120.937075428 Ha          -3290.865259767 eV
  ------------------------------------ 
  LDA X and C from self-consistent density 
  X Energy LDA        :       -109.309042443 Ha          -2974.450383253 eV
  C Energy LDA        :         -6.126952841 Ha           -166.722869563 eV
  ------------------------------------ 
  End decomposition of the XC Energy 
  ------------------------------------ 

------------------------------------------------------------

------------------------------------------------------------------------------
  Final output of selected total energy values:

  The following output summarizes some interesting total energy values
  at the end of a run (AFTER all relaxation, molecular dynamics, etc.).

  | Total energy of the DFT / Hartree-Fock s.c.f. calculation      :         -50894.667791994 eV
  | Final zero-broadening corrected energy (caution - metals only) :         -50894.667791994 eV
  | For reference only, the value of 1 Hartree used in FHI-aims is :             27.211384500 eV

  Before relying on these values, please be sure to understand exactly which
  total energy value is referred to by a given number. Different objects may
  all carry the same name 'total energy'. Definitions:

  Total energy of the DFT / Hartree-Fock s.c.f. calculation:
  | Note that this energy does not include ANY quantities calculated after the
  | s.c.f. cycle, in particular not ANY RPA, MP2, etc. many-body perturbation terms.

  Final zero-broadening corrected energy:
  | For metallic systems only, a broadening of the occupation numbers at the Fermi
  | level can be extrapolated back to zero broadening by an electron-gas inspired
  | formula. For all systems that are not real metals, this value can be
  | meaningless and should be avoided.

------------------------------------------------------------------------------
  Methods described in the following list of references were used in this FHI-aims run.
  If you publish the results, please make sure to cite these reference if they apply.
  FHI-aims is an academic code, and for our developers (often, Ph.D. students
  and postdocs), scientific credit in the community is essential.
  Thank you for helping us!

  For any use of FHI-aims, please cite:

    Volker Blum, Ralf Gehrke, Felix Hanke, Paula Havu, Ville Havu,
    Xinguo Ren, Karsten Reuter, and Matthias Scheffler
    'Ab initio molecular simulations with numeric atom-centered orbitals'
    Computer Physics Communications 180, 2175-2196 (2009)
    http://dx.doi.org/10.1016/j.cpc.2009.06.022


  The provided symmetry information was generated with SPGlib:

    Atsushi Togo, Yusuke Seto, Dimitar Pashov
    SPGlib 1.7.3 obtained from http://spglib.sourceforge.net
    Copyright (C) 2008 Atsushi Togo


  The scalable eigensolver library ELPA was used in your run.
  ELPA is essential especially for large systems on hundreds or thousands of CPUs.
  For ELPA, please cite:

    Andreas Marek, Volker Blum, Rainer Johanni, Ville Havu, Bruno Lang,
    Thomas Auckenthaler, Alexander Heinecke, Hans-Joachim Bungartz, and Hermann Lederer,
    'The ELPA Library - Scalable Parallel Eigenvalue Solutions
    for Electronic Structure Theory and Computational Science'
    The Journal of Physics: Condensed Matter 26, 213201 (2014).
    http://dx.doi.org/10.1088/0953-8984/26/21/213201


  The ELSI infrastructure was used in your run to solve the Kohn-Sham electronic structure.
  Please check out http://elsi-interchange.org to learn more.
  If scalability is important for your project, please acknowledge ELSI by citing:

    V. W-z. Yu, F. Corsetti, A. Garcia, W. P. Huhn, M. Jacquelin, W. Jia,
    B. Lange, L. Lin, J. Lu, W. Mi, A. Seifitokaldani, A. Vazquez-Mayagoitia,
    C. Yang, H. Yang, and V. Blum
    'ELSI: A unified software interface for Kohn-Sham electronic structure solvers'
    Computer Physics Communications 222, 267-285 (2018).
    http://dx.doi.org/10.1016/j.cpc.2017.09.007


  For the real-space grid partitioning and parallelization used in this calculation, please cite:

    Ville Havu, Volker Blum, Paula Havu, and Matthias Scheffler,
    'Efficient O(N) integration for all-electron electronic structure calculation'
    'using numerically tabulated basis functions'
    Journal of Computational Physics 228, 8367-8379 (2009).
    http://dx.doi.org/10.1016/j.jcp.2009.08.008

  Of course, there are many other important community references, e.g., those cited in the
  above references. Our list is limited to references that describe implementations in the
  FHI-aims code. The reason is purely practical (length of this list) - please credit others as well.

   One or more s.c.f. cycles took more than 50 s.c.f. iterations.
   It might be worth adjusting your convergence settings. For example,
   metals need a larger broadening and a smaller "charge_mix_param" value than semiconductors.

------------------------------------------------------------
          Leaving FHI-aims.
          Date     :  20220721, Time     :  125532.844

          Computational steps:
          | Number of self-consistency cycles          :           94
          | Number of SCF (re)initializations          :            1

          Detailed time accounting                     :  max(cpu_time)    wall_clock(cpu1)
          | Total time                                 :      138.449 s         138.544 s
          | Preparation time                           :        0.413 s           0.410 s
          | Boundary condition initalization           :        0.070 s           0.070 s
          | Grid partitioning                          :        0.045 s           0.044 s
          | Preloading free-atom quantities on grid    :        0.008 s           0.018 s
          | Free-atom superposition energy             :        0.030 s           0.030 s
          | Total time for integrations                :       34.966 s          34.964 s
          | Total time for solution of K.-S. equations :        3.585 s           3.611 s
          | Total time for density & force components  :       64.531 s          64.491 s
          | Total time for mixing & preconditioning    :       11.520 s          11.522 s
          | Total time for Hartree multipole update    :        0.120 s           0.121 s
          | Total time for Hartree multipole sum       :       22.551 s          22.555 s
          | Total time for total energy evaluation     :        0.025 s           0.044 s

          Partial memory accounting:
          | Residual value for overall tracked memory usage across tasks :           0.000 MB (should be 0.000 MB)
          | Peak values for overall tracked memory usage (after allocating gradient_basis_wave):
          |   Minimum:       13.284 MB (on task  8)
          |   Maximum:       14.186 MB (on task  4)
          |   Average:       13.791 MB
          | Largest tracked array allocation (hamiltonian_shell):
          |   Minimum:        4.670 MB (on task  8)
          |   Maximum:        5.301 MB (on task  1)
          |   Average:        5.053 MB
          Note:  These values currently only include a subset of arrays which are explicitly tracked.
          The "true" memory usage will be greater.

          Have a nice day.
------------------------------------------------------------
