  MPI-parallelism will be employed.
------------------------------------------------------------
          Invoking FHI-aims ...
          Version 171221_1
          Compiled on 2020/09/23 at 19:46:43 on host login.service.

          When using FHI-aims, please cite the following reference:

          Volker Blum, Ralf Gehrke, Felix Hanke, Paula Havu,
          Ville Havu, Xinguo Ren, Karsten Reuter, and Matthias Scheffler,
          'Ab Initio Molecular Simulations with Numeric Atom-Centered Orbitals',
          Computer Physics Communications 180, 2175-2196 (2009)

          For any questions about FHI-aims, please visit the aimsclub website
          with its forums and wiki. Contributions to both the forums and the
          wiki are warmly encouraged - they are for you, and everyone is welcome there.

------------------------------------------------------------



  Date     :  20220715, Time     :  132304.868
  Time zero on CPU 1             :   0.833920000000000E-01  s.
  Internal wall clock time zero  :           427123384.868  s.

  FHI-aims created a unique identifier for this run for later identification
  aims_uuid : A3E7F3AB-457A-4D4A-AB06-644392FCB5D4

  Using       20 parallel tasks.
  Task        0 on host node034 reporting.
  Task        1 on host node034 reporting.
  Task        2 on host node034 reporting.
  Task        3 on host node034 reporting.
  Task        4 on host node034 reporting.
  Task        5 on host node034 reporting.
  Task        6 on host node034 reporting.
  Task        7 on host node034 reporting.
  Task        8 on host node034 reporting.
  Task        9 on host node034 reporting.
  Task       10 on host node034 reporting.
  Task       11 on host node034 reporting.
  Task       12 on host node034 reporting.
  Task       13 on host node034 reporting.
  Task       14 on host node034 reporting.
  Task       15 on host node034 reporting.
  Task       16 on host node034 reporting.
  Task       17 on host node034 reporting.
  Task       18 on host node034 reporting.
  Task       19 on host node034 reporting.

  Performing system and environment tests:
  *** Environment variable OMP_NUM_THREADS is not set
  *** For performance reasons you might want to set it to 1
  | Maximum stacksize for task 0: unlimited
  | Maximum stacksize for task 1: unlimited
  | Maximum stacksize for task 2: unlimited
  | Maximum stacksize for task 3: unlimited
  | Maximum stacksize for task 4: unlimited
  | Maximum stacksize for task 5: unlimited
  | Maximum stacksize for task 6: unlimited
  | Maximum stacksize for task 7: unlimited
  | Maximum stacksize for task 8: unlimited
  | Maximum stacksize for task 9: unlimited
  | Maximum stacksize for task 10: unlimited
  | Maximum stacksize for task 11: unlimited
  | Maximum stacksize for task 12: unlimited
  | Maximum stacksize for task 13: unlimited
  | Maximum stacksize for task 14: unlimited
  | Maximum stacksize for task 15: unlimited
  | Maximum stacksize for task 16: unlimited
  | Maximum stacksize for task 17: unlimited
  | Maximum stacksize for task 18: unlimited
  | Maximum stacksize for task 19: unlimited
  | Current stacksize for task 0: unlimited
  | Current stacksize for task 1: unlimited
  | Current stacksize for task 2: unlimited
  | Current stacksize for task 3: unlimited
  | Current stacksize for task 4: unlimited
  | Current stacksize for task 5: unlimited
  | Current stacksize for task 6: unlimited
  | Current stacksize for task 7: unlimited
  | Current stacksize for task 8: unlimited
  | Current stacksize for task 9: unlimited
  | Current stacksize for task 10: unlimited
  | Current stacksize for task 11: unlimited
  | Current stacksize for task 12: unlimited
  | Current stacksize for task 13: unlimited
  | Current stacksize for task 14: unlimited
  | Current stacksize for task 15: unlimited
  | Current stacksize for task 16: unlimited
  | Current stacksize for task 17: unlimited
  | Current stacksize for task 18: unlimited
  | Current stacksize for task 19: unlimited
  | Checking for scalapack...
  | Testing pdtran()...
  | All pdtran() tests passed.

  Obtaining array dimensions for all initial allocations:
  
  -----------------------------------------------------------------------
  Parsing control.in (first pass over file, find array dimensions only).
  The contents of control.in will be repeated verbatim below
  unless switched off by setting 'verbatim_writeout .false.' .
  in the first line of control.in .
  -----------------------------------------------------------------------
  
  #===============================================================================
  # FHI-aims file: ./control.in
  # Created using the Atomic Simulation Environment (ASE)
  # Wed Mar 24 12:41:28 2021
  #===============================================================================
  xc                                 pbe
  sc_accuracy_etot                   1e-06
  sc_accuracy_eev                    0.001
  sc_accuracy_rho                    1e-06
  sc_accuracy_forces                 0.0001
  friction_temperature               300  # default 300
  
    k_grid                           3  3  3
  
  
  
  ################################################################################
  #
  #  FHI-aims code project
  # Volker Blum, Fritz Haber Institute Berlin, 2009
  #
  #  Suggested "tight" defaults for Li atom (to be pasted into control.in file)
  #
  #  2016/03/22: Increased cutoff radius to 5.0 AA (Xinguo Ren, Aug 15, 2015)
  #
  ################################################################################
    species        Li
  #     global species definitions
      nucleus             3
      mass                6.941
  #
      l_hartree           6
  #
      cut_pot             5.0  2.0  1.0
      basis_dep_cutoff    1e-4
  #
      radial_base         29 7.0
      radial_multiplier   2
      angular_grids       specified
        division   0.4484  110
        division   0.5659  194
        division   0.6315  302
        division   0.6662  434
  #      division   0.8186  590
  #      division   0.9037  770
  #      division   6.2760  974
  #      outer_grid   974
        outer_grid  434
  ################################################################################
  #
  #  Definition of "minimal" basis
  #
  ################################################################################
  #     valence basis states
      valence      2  s   1.
  #     ion occupancy
      ion_occ      1  s   2.
  ################################################################################
  #
  #  Suggested additional basis functions. For production calculations,
  #  uncomment them one after another (the most important basis functions are
  #  listed first).
  #
  #  Constructed for dimers: 1.80 A, 2.25 A, 2.75 A, 3.50 A, 4.50 A
  #
  ################################################################################
  #  "First tier" - improvements: -189.23 meV to -6.35 meV
       hydro 2 p 1.6
       hydro 2 s 2
       hydro 3 d 2.6
  #  "Second tier" - improvements: -4.69 meV to -0.41 meV
       hydro 3 p 4.6
       hydro 2 p 1.8
       hydro 3 s 6.2
       hydro 4 d 4.7
       hydro 4 f 4.1
  #  "Third tier" - improvements: -0.20 meV to -0.15 meV
  #     hydro 4 d 0.95
  #     hydro 3 p 6.2
  #     hydro 3 s 1.7
  #  Further functions, listed for completeness
  #     VB: The following functions are only listed for completeness; test very
  #         carefully before any kind of production use. From the point of view
  #         of the basis construction, their main role is to fill up space,
  #         and they are solely determined by the location of the cutoff potential.
  #     hydro 3 p 0.1  # -0.15 meV
  #     hydro 4 d 5    # -0.12 meV
  #     hydro 4 f 0.1  # -0.14 meV
  #     hydro 5 g 0.1  # -0.06 meV
  
  
  ################################################################################
  #
  # For methods that use the localized form of the "resolution of identity" for
  # the two-electron Coulomb operator (RI_method LVL), particularly Hartree-Fock and
  # hybrid density functional calculations, the highest accuracy can be obtained by
  # uncommenting the line beginning with "for_aux"  below, thus adding an extra g radial
  # function to the construction of the product basis set for the expansion.
  # See Ref. New J. Phys. 17, 093020 (2015) for more information, particularly Figs. 1 and 6.
  #
  ################################################################################
  #
  # for_aux hydro 5 g 6.0
  ################################################################################
  #
  #  FHI-aims code project
  # Volker Blum, Fritz Haber Institute Berlin, 2010
  #
  #  Suggested "tight" defaults for P atom (to be pasted into control.in file)
  #
  #  Revised Jan 04, 2011, following tests (SiC) done by Lydia Nemec:
  #     d function of tier 2 now enabled by default.
  #
  ################################################################################
    species        P
  #     global species definitions
      nucleus             15
      mass                30.973762
  #
      l_hartree           6
  #
      cut_pot             4.0          2.0  1.0
      basis_dep_cutoff    1e-4
  #
      radial_base         43 7.0
      radial_multiplier   2
      angular_grids       specified
        division   0.2995   50
        division   0.5998  110
        division   0.9240  194
        division   1.0921  302
        division   1.2863  434
  #      division   1.3165  590
  #      division   1.4113  770
  #      division   1.5128  974
  #      division   2.4980 1202
        outer_grid  434
  ################################################################################
  #
  #  Definition of "minimal" basis
  #
  ################################################################################
  #     valence basis states
      valence      3  s   2.
      valence      3  p   3.
  #     ion occupancy
      ion_occ      3  s   1.
      ion_occ      3  p   2.
  ################################################################################
  #
  #  Suggested additional basis functions. For production calculations,
  #  uncomment them one after another (the most important basis functions are
  #  listed first).
  #
  #  Constructed for dimers: 1.625 A, 1.875 A, 2.5 A, 3.25 A, 4.0 A
  #
  ################################################################################
  #  "First tier" - improvements: -726.20 meV to -35.91 meV
       ionic 3 d auto
       ionic 3 p auto
       hydro 4 f 6.2
       hydro 5 g 8.6
       ionic 3 s auto
  #  "Second tier" - improvements: -16.02 meV to -1.71 meV
       hydro 4 d 6.2
  #     hydro 4 p 9.2
  #     hydro 5 f 9.8
  #     hydro 1 s 0.7
  #     hydro 5 g 13.2
  #  "Third tier" - improvements: -1.82 meV to -0.20 meV
  #     hydro 3 p 2.5
  #     hydro 4 d 6.4
  #     hydro 5 f 11.2
  #     hydro 2 s 1.5
  #  "Fourth tier" - improvements: -0.91 meV to -0.17 meV
  #     hydro 3 d 16.8
  #     hydro 5 g 18
  #     hydro 4 p 4.5
  #     hydro 3 s 2.1
  #  Further basis functions that fell out of the optimization - < -0.09 meV
  #     hydro 4 p 10.4
  #     hydro 4 d 17.6
  #     hydro 4 s 11.2
  ################################################################################
  #
  # For methods that use the localized form of the "resolution of identity" for
  # the two-electron Coulomb operator (RI_method LVL), particularly Hartree-Fock and
  # hybrid density functional calculations, the highest accuracy can be obtained by
  # uncommenting the line beginning with "for_aux"  below, thus adding an extra g radial
  # function to the construction of the product basis set for the expansion.
  # See Ref. New J. Phys. 17, 093020 (2015) for more information, particularly Figs. 1 and 6.
  #
  ################################################################################
  #
  # for_aux hydro 5 g 6.0
  ################################################################################
  #
  #  FHI-aims code project
  # Volker Blum, Fritz Haber Institute Berlin, 2009
  #
  #  Suggested "tight" defaults for S atom (to be pasted into control.in file)
  #
  #  Revised Jan 04, 2011, following tests (SiC) done by Lydia Nemec:
  #     d and g functions of tier 2 now enabled by default.
  #
  ################################################################################
    species        S
  #     global species definitions
      nucleus             16
      mass                32.065
  #
      l_hartree           6
  #
      cut_pot             4.0          2.0  1.0
      basis_dep_cutoff    1e-4
  #
      radial_base         44 7.0
      radial_multiplier   2
      angular_grids       specified
        division   0.4665  110
        division   0.5810  194
        division   0.7139  302
        division   0.8274  434
  #      division   0.9105  590
  #      division   1.0975  770
  #      division   1.2028  974
  #      outer_grid  974
        outer_grid  434
  ################################################################################
  #
  #  Definition of "minimal" basis
  #
  ################################################################################
  #     valence basis states
      valence      3  s   2.
      valence      3  p   4.
  #     ion occupancy
      ion_occ      3  s   1.
      ion_occ      3  p   3.
  ################################################################################
  #
  #  Suggested additional basis functions. For production calculations,
  #  uncomment them one after another (the most important basis functions are
  #  listed first).
  #
  #  Constructed for dimers: 1.6 A, 1.9 A, 2.5 A, 3.25 A, 4.0 A
  #
  ################################################################################
  #  "First tier" - improvements: -652.81 meV to -45.53 meV
       ionic 3 d auto
       hydro 2 p 1.8
       hydro 4 f 7
       ionic 3 s auto
  #  "Second tier" - improvements: -30.20 meV to -1.74 meV
       hydro 4 d 6.2
       hydro 5 g 10.8
  #     hydro 4 p 4.9
  #     hydro 5 f 10
  #     hydro 1 s 0.8
  #  "Third tier" - improvements: -1.04 meV to -0.20 meV
  #     hydro 3 d 3.9
  #     hydro 3 d 2.7
  #     hydro 5 g 12
  #     hydro 4 p 10.4
  #     hydro 5 f 12.4
  #     hydro 2 s 1.9
  #  "Fourth tier" - improvements: -0.35 meV to -0.06 meV
  #     hydro 4 d 10.4
  #     hydro 4 p 7.2
  #     hydro 4 d 10
  #     hydro 5 g 19.2
  #     hydro 4 s 12
  
  ################################################################################
  #
  # For methods that use the localized form of the "resolution of identity" for
  # the two-electron Coulomb operator (RI_method LVL), particularly Hartree-Fock and
  # hybrid density functional calculations, the highest accuracy can be obtained by
  # uncommenting the line beginning with "for_aux"  below, thus adding an extra g radial
  # function to the construction of the product basis set for the expansion.
  # See Ref. New J. Phys. 17, 093020 (2015) for more information, particularly Figs. 1 and 6.
  #
  ################################################################################
  #
  # for_aux hydro 5 g 6.0
  ################################################################################
  #
  #  FHI-aims code project
  # Volker Blum, Fritz Haber Institute Berlin, 2009
  #
  #  Suggested "tight" defaults for Cl atom (to be pasted into control.in file)
  #
  #  Revised Jan 04, 2011, following tests (SiC) done by Lydia Nemec:
  #     d function of tier 2 now enabled by default.
  #
  ################################################################################
    species        Cl
  #     global species definitions
      nucleus             17
      mass                35.453
  #
      l_hartree           6
  #
      cut_pot             4.0          2.0  1.0
      basis_dep_cutoff    1e-4
  #
      radial_base         45 7.0
      radial_multiplier   2
      angular_grids       specified
        division   0.4412  110
        division   0.5489  194
        division   0.6734  302
        division   0.7794  434
  #      division   0.9402  590
  #      division   1.0779  770
  #      division   1.1792  974
  #      outer_grid  974
        outer_grid  434
  ################################################################################
  #
  #  Definition of "minimal" basis
  #
  ################################################################################
  #     valence basis states
      valence      3  s   2.
      valence      3  p   5.
  #     ion occupancy
      ion_occ      3  s   1.
      ion_occ      3  p   4.
  ################################################################################
  #
  #  Suggested additional basis functions. For production calculations,
  #  uncomment them one after another (the most important basis functions are
  #  listed first).
  #
  #  Constructed for dimers: 1.65 A, 2.0 A, 2.5 A, 3.25 A, 4.0 A
  #
  ################################################################################
  #  "First tier" - improvements: -429.57 meV to -15.03 meV
       ionic 3 d auto
       hydro 2 p 1.9
       hydro 4 f 7.4
       ionic 3 s auto
       hydro 5 g 10.4
  #  "Second tier" - improvements: -7.84 meV to -0.48 meV
       hydro 3 d 3.3
  #     hydro 5 f 9.8
  #     hydro 1 s 0.75
  #     hydro 5 g 11.2
  #     hydro 4 p 10.4
  #  "Third tier" - improvements: -1.00 meV to -0.12 meV
  #     hydro 4 d 12.8
  #     hydro 4 f 4.6
  #     hydro 4 d 10.8
  #     hydro 2 s 1.8
  #     hydro 3 p 3
  #  Further functions that fell out - improvements: -0.10 meV and below
  #     hydro 5 f 14.4
  #     hydro 4 s 12.8
  #     hydro 3 d 11.6
  #     hydro 4 s 4.1
  ################################################################################
  #
  # For methods that use the localized form of the "resolution of identity" for
  # the two-electron Coulomb operator (RI_method LVL), particularly Hartree-Fock and
  # hybrid density functional calculations, the highest accuracy can be obtained by
  # uncommenting the line beginning with "for_aux"  below, thus adding an extra g radial
  # function to the construction of the product basis set for the expansion.
  # See Ref. New J. Phys. 17, 093020 (2015) for more information, particularly Figs. 1 and 6.
  #
  ################################################################################
  #
  # for_aux hydro 5 g 6.0
  
  -----------------------------------------------------------------------
  Completed first pass over input file control.in .
  -----------------------------------------------------------------------
  
  
  -----------------------------------------------------------------------
  Parsing geometry.in (first pass over file, find array dimensions only).
  The contents of geometry.in will be repeated verbatim below
  unless switched off by setting 'verbatim_writeout .false.' .
  in the first line of geometry.in .
  -----------------------------------------------------------------------
  
  #=======================================================
  # FHI-aims file: /home/gz_fan/Documents/ML/train/battery/data/lipscl/band_aims/geometry.in.1
  # Created using the Atomic Simulation Environment (ASE)
  # Mon Jul 11 12:34:48 2022
  #=======================================================
  lattice_vector 9.8979997634999997 0.0000000000000000 0.0000000000000000
  lattice_vector 0.0000000000000000 9.8979997634999997 0.0000000000000000
  lattice_vector 0.0000000000000000 0.0000000000000000 9.8979997634999997
  atom 3.0690165642364984 0.2803461952366325 6.6562688972370161 Li
  atom 3.2770496621592260 0.0199827682547094 2.9373745754704337 Li
  atom 6.7626404874580723 3.1373741218148004 0.2897824504220123 Li
  atom 6.9578445511604103 6.7284105418597884 -0.0145666049475679 Li
  atom 0.3164641028510162 6.8094840267075352 3.1821419711092180 Li
  atom 9.5585493893243303 6.6615237605630897 6.8527696947614105 Li
  atom -0.1074090900867697 3.1326998324034663 6.7545339719954294 Li
  atom 3.5564763684961602 5.1903545548052543 1.6587170253764720 Li
  atom 6.7123894355258926 8.1277594991050996 5.1394729176347340 Li
  atom 6.4310490405800600 1.7535060582375550 4.6662414313181966 Li
  atom 3.1125677202897335 7.7099974051156508 4.7692450964883024 Li
  atom 0.0238685390797537 2.1203820721258082 2.0208263237910526 Li
  atom 7.9757719101239237 0.0154025509035387 1.7420157046952280 Li
  atom 8.1085958386786032 9.8187583099123632 8.1676789190495462 Li
  atom 2.2270438555005261 3.8215933342290773 5.0473461482607123 Li
  atom 4.6893200709619061 2.93042108371654608 6.0141682095021636 Li
  atom 7.9543038723207209 4.6381988761520034 3.5048889537312857 Li
  atom 1.6840584711536575 8.3252248763944188 0.1691700167177598 Li
  atom 1.7668538029419318 1.9781965195343105 9.5143391062506932 Li
  atom 4.8629301447967190 6.7389523056013072 7.9007877347744531 Li
  atom 0.0081609389550335 -0.0117910846417033 4.9183067058208980 P
  atom 4.8929847668644033 0.0604535474176018 -0.1340192063200150 P
  atom 0.0510094793337940 4.9893823036046312 0.0778722477229196 P
  atom 5.0572051578208299 4.8714473578441586 4.8181855202082833 P
  atom 1.1506171855427068 8.6423898008349553 6.1007710318467687 S
  atom 8.5965499149771389 1.1064078425484505 6.0562356599504401 S
  atom 8.7270295261797628 8.6827929789501201 3.7217594780415997 S
  atom 1.2663170560272277 1.2297058359026065 3.8762679553686623 S
  atom 6.0772003509807453 1.2928268103181344 8.5947161604151923 S
  atom 6.0123846129040581 8.7370763341721673 1.0684056005170157 S
  atom 3.6762799487600497 8.7763090029730488 8.5710134757439302 S
  atom 3.6969616503394400 1.2906963788802104 0.9734614945492998 S
  atom 8.7234750542743331 5.9582073919681786 1.4445069207891283 S
  atom 1.0654511809315050 6.3104565108833688 8.8024172837733659 S
  atom 8.7537265482659024 3.7811655017971457 8.8385333396450161 S
  atom 1.4207658580344875 3.8797812999087378 1.1628748410074636 S
  atom 6.0818337576203154 6.2506537392219936 3.7186958011460627 S
  atom 6.3250500067784934 3.7921890729430503 6.0115254013170150 S
  atom 4.0858136106854248 3.6118473235881132 3.5268009066866930 S
  atom 3.6289256440672917 5.7602658306722514 6.0479883431828219 S
  atom 2.3668205913058582 2.4936749453325850 7.2540696984583368 Cl
  atom 7.3134333616505094 7.5393838035581915 7.4843314574012858 Cl
  atom 4.7367071795313187 -0.2327336245928097 4.8929528402242299 Cl
  atom 5.1615237882195633 5.0305813985581151 -0.2583427585423979 Cl
  atom -0.0497286330629200 0.2602403531755270 0.1663799440937193 Cl
  atom 0.0300422696006869 4.9570735262529642 5.0233018005788033 Cl
  atom 7.5963872983622052 2.3519079577584594 2.4720184902167288 Cl
  atom 2.4716053124235144 7.5248888621960059 2.4620893132941322 Cl
  
  -----------------------------------------------------------------------
  Completed first pass over input file geometry.in .
  -----------------------------------------------------------------------
  

  Basic array size parameters:
  | Number of species                 :        4
  | Number of atoms                   :       48
  | Number of lattice vectors         :        3
  | Max. basis fn. angular momentum   :        4
  | Max. atomic/ionic basis occupied n:        3
  | Max. number of basis fn. types    :        3
  | Max. radial fns per species/type  :        8
  | Max. logarithmic grid size        :     1362
  | Max. radial integration grid size :       91
  | Max. angular integration grid size:      434
  | Max. angular grid division number :        8
  | Radial grid for Hartree potential :     1362
  | Number of spin channels           :        1

------------------------------------------------------------
          Reading file control.in.
------------------------------------------------------------
  XC: Using PBE gradient-corrected functionals.
  Convergence accuracy of total energy:  0.1000E-05
  Convergence accuracy of sum of eigenvalues:  0.1000E-02
  Convergence accuracy of self-consistent charge density:  0.1000E-05
  Convergence accuracy of forces:  0.1000E-03
  Friction is calculated at temperature of   0.3000E+03 K
  Found k-point grid:         3         3         3
 
  Reading configuration options for species Li                  .
  | Found nuclear charge :   3.0000
  | Found atomic mass :    6.94100000000000      amu
  | Found l_max for Hartree potential  :   6
  | Found cutoff potl. onset [A], width [A], scale factor :    5.00000    2.00000    1.00000
  | Threshold for basis-dependent cutoff potential is   0.100000E-03
  | Found data for basic radial integration grid :    29 points, outermost radius =    7.000 A
  | Found multiplier for basic radial grid :   2
  | Found angular grid specification: user-specified.
  | Specified grid contains     5 separate shells.
  | Check grid settings after all constraints further below.
  | Found free-atom valence shell :  2 s   1.000
  | Found free-ion valence shell :  1 s   2.000
  | Found hydrogenic basis function :  2 p   1.600
  | Found hydrogenic basis function :  2 s   2.000
  | Found hydrogenic basis function :  3 d   2.600
  | Found hydrogenic basis function :  3 p   4.600
  | Found hydrogenic basis function :  2 p   1.800
  | Found hydrogenic basis function :  3 s   6.200
  | Found hydrogenic basis function :  4 d   4.700
  | Found hydrogenic basis function :  4 f   4.100
  Species Li                  : Missing cutoff potential type.
  Defaulting to exp(1/x)/(1-x)^2 type cutoff potential.
  Species Li: No 'logarithmic' tag. Using default grid for free atom:
  | Default logarithmic grid data [bohr] : 0.1000E-03 0.1000E+03 0.1012E+01
  Species Li: On-site basis accuracy parameter (for Gram-Schmidt orthonormalisation) not specified.
  Using default value basis_acc =  0.1000000E-03.
  Species Li                  : Using default innermost maximum threshold i_radial=  2 for radial functions.
  Species Li                  : Default cutoff onset for free atom density etc. : 0.50000000E+01 AA.
  Species Li                  : Basic radial grid will be enhanced according to radial_multiplier =   2, to contain    59 grid points.
 
  Reading configuration options for species P                   .
  | Found nuclear charge :  15.0000
  | Found atomic mass :    30.9737620000000      amu
  | Found l_max for Hartree potential  :   6
  | Found cutoff potl. onset [A], width [A], scale factor :    4.00000    2.00000    1.00000
  | Threshold for basis-dependent cutoff potential is   0.100000E-03
  | Found data for basic radial integration grid :    43 points, outermost radius =    7.000 A
  | Found multiplier for basic radial grid :   2
  | Found angular grid specification: user-specified.
  | Specified grid contains     6 separate shells.
  | Check grid settings after all constraints further below.
  | Found free-atom valence shell :  3 s   2.000
  | Found free-atom valence shell :  3 p   3.000
  | Found free-ion valence shell :  3 s   1.000
  | Found free-ion valence shell :  3 p   2.000
  | Found ionic basis function :  3 d , default cutoff radius.
  | Found ionic basis function :  3 p , default cutoff radius.
  | Found hydrogenic basis function :  4 f   6.200
  | Found hydrogenic basis function :  5 g   8.600
  | Found ionic basis function :  3 s , default cutoff radius.
  | Found hydrogenic basis function :  4 d   6.200
  Species P                   : Missing cutoff potential type.
  Defaulting to exp(1/x)/(1-x)^2 type cutoff potential.
  Species P : No 'logarithmic' tag. Using default grid for free atom:
  | Default logarithmic grid data [bohr] : 0.1000E-03 0.1000E+03 0.1012E+01
  | Will include ionic basis functions of  2.0-fold positive P                    ion.
  Species P : On-site basis accuracy parameter (for Gram-Schmidt orthonormalisation) not specified.
  Using default value basis_acc =  0.1000000E-03.
  Species P                   : Using default innermost maximum threshold i_radial=  2 for radial functions.
  Species P                   : Default cutoff onset for free atom density etc. : 0.40000000E+01 AA.
  Species P                   : Basic radial grid will be enhanced according to radial_multiplier =   2, to contain    87 grid points.
 
  Reading configuration options for species S                   .
  | Found nuclear charge :  16.0000
  | Found atomic mass :    32.0650000000000      amu
  | Found l_max for Hartree potential  :   6
  | Found cutoff potl. onset [A], width [A], scale factor :    4.00000    2.00000    1.00000
  | Threshold for basis-dependent cutoff potential is   0.100000E-03
  | Found data for basic radial integration grid :    44 points, outermost radius =    7.000 A
  | Found multiplier for basic radial grid :   2
  | Found angular grid specification: user-specified.
  | Specified grid contains     5 separate shells.
  | Check grid settings after all constraints further below.
  | Found free-atom valence shell :  3 s   2.000
  | Found free-atom valence shell :  3 p   4.000
  | Found free-ion valence shell :  3 s   1.000
  | Found free-ion valence shell :  3 p   3.000
  | Found ionic basis function :  3 d , default cutoff radius.
  | Found hydrogenic basis function :  2 p   1.800
  | Found hydrogenic basis function :  4 f   7.000
  | Found ionic basis function :  3 s , default cutoff radius.
  | Found hydrogenic basis function :  4 d   6.200
  | Found hydrogenic basis function :  5 g  10.800
  Species S                   : Missing cutoff potential type.
  Defaulting to exp(1/x)/(1-x)^2 type cutoff potential.
  Species S : No 'logarithmic' tag. Using default grid for free atom:
  | Default logarithmic grid data [bohr] : 0.1000E-03 0.1000E+03 0.1012E+01
  | Will include ionic basis functions of  2.0-fold positive S                    ion.
  Species S : On-site basis accuracy parameter (for Gram-Schmidt orthonormalisation) not specified.
  Using default value basis_acc =  0.1000000E-03.
  Species S                   : Using default innermost maximum threshold i_radial=  2 for radial functions.
  Species S                   : Default cutoff onset for free atom density etc. : 0.40000000E+01 AA.
  Species S                   : Basic radial grid will be enhanced according to radial_multiplier =   2, to contain    89 grid points.
 
  Reading configuration options for species Cl                  .
  | Found nuclear charge :  17.0000
  | Found atomic mass :    35.4530000000000      amu
  | Found l_max for Hartree potential  :   6
  | Found cutoff potl. onset [A], width [A], scale factor :    4.00000    2.00000    1.00000
  | Threshold for basis-dependent cutoff potential is   0.100000E-03
  | Found data for basic radial integration grid :    45 points, outermost radius =    7.000 A
  | Found multiplier for basic radial grid :   2
  | Found angular grid specification: user-specified.
  | Specified grid contains     5 separate shells.
  | Check grid settings after all constraints further below.
  | Found free-atom valence shell :  3 s   2.000
  | Found free-atom valence shell :  3 p   5.000
  | Found free-ion valence shell :  3 s   1.000
  | Found free-ion valence shell :  3 p   4.000
  | Found ionic basis function :  3 d , default cutoff radius.
  | Found hydrogenic basis function :  2 p   1.900
  | Found hydrogenic basis function :  4 f   7.400
  | Found ionic basis function :  3 s , default cutoff radius.
  | Found hydrogenic basis function :  5 g  10.400
  | Found hydrogenic basis function :  3 d   3.300
  Species Cl                  : Missing cutoff potential type.
  Defaulting to exp(1/x)/(1-x)^2 type cutoff potential.
  Species Cl: No 'logarithmic' tag. Using default grid for free atom:
  | Default logarithmic grid data [bohr] : 0.1000E-03 0.1000E+03 0.1012E+01
  | Will include ionic basis functions of  2.0-fold positive Cl                   ion.
  Species Cl: On-site basis accuracy parameter (for Gram-Schmidt orthonormalisation) not specified.
  Using default value basis_acc =  0.1000000E-03.
  Species Cl                  : Using default innermost maximum threshold i_radial=  2 for radial functions.
  Species Cl                  : Default cutoff onset for free atom density etc. : 0.40000000E+01 AA.
  Species Cl                  : Basic radial grid will be enhanced according to radial_multiplier =   2, to contain    91 grid points.
 
  Finished reading input file 'control.in'. Consistency checks are next.
 
  MPI_IN_PLACE appears to work with this MPI implementation.
  | Keeping use_mpi_in_place .true. (see manual).
  Target number of points in a grid batch is not set. Defaulting to  100
  Method for grid partitioning is not set. Defaulting to parallel hash+maxmin partitioning.
  Batch size limit is not set. Defaulting to    200
  By default, will store active basis functions for each batch.
  If in need of memory, prune_basis_once .false. can be used to disable this option.
  communication_type for Hartree potential was not specified.
  Defaulting to calc_hartree .
  Defaulting to Pulay charge density mixer.
  Pulay mixer: Number of relevant iterations not set.
  Defaulting to    8 iterations.
  Pulay mixer: Number of initial linear mixing iterations not set.
  Defaulting to    0 iterations.
  Work space size for distributed Hartree potential not set.
  Defaulting to   0.200000E+03 MB.
  Mixing parameter for charge density mixing has not been set.
  Using default: charge_mix_param =     0.0500.
  The mixing parameter will be adjusted in iteration number     2 of the first full s.c.f. cycle only.
  Algorithm-dependent basis array size parameters:
  | n_max_pulay                         :        8
  Maximum number of self-consistency iterations not provided.
  Presetting  1000 iterations.
  Presetting      1001 iterations before the initial mixing cycle
  is restarted anyway using the sc_init_iter criterion / keyword.
  Presetting a factor      1.000 between actual scf density residual
  and density convergence criterion sc_accuracy_rho below which sc_init_iter
  takes no effect.
  Geometry relaxation not requested: no relaxation will be performed.
  Handling of forces: Unphysical translation and rotation will be removed from forces.
  No accuracy limit for integral partition fn. given. Defaulting to  0.1000E-14.
  No threshold value for u(r) in integrations given. Defaulting to  0.1000E-05.
  No occupation type (smearing scheme) given. Defaulting to Gaussian broadening, width =  0.1000E-01 eV.
  The width will be adjusted in iteration number     2 of the first full s.c.f. cycle only.
  S.C.F. convergence parameters will be adjusted in iteration number     2 of the first full s.c.f. cycle only.
  No accuracy for occupation numbers given. Defaulting to  0.1000E-12.
  No threshold value for occupation numbers given. Defaulting to  0.0000E+00.
  No accuracy for fermi level given. Defaulting to  0.1000E-19.
  Maximum # of iterations to find E_F not set. Defaulting to  200.
  Preferred method for the eigenvalue solver ('KS_method') not specified in 'control.in'.
  Defaulting to serial version, 'lapack_fast', since more k-points than CPUs available.
  Will not use alltoall communication since running on < 1024 CPUs.
  Threshold for basis singularities not set.
  Default threshold for basis singularities:  0.1000E-04
  partition_type (choice of integration weights) for integrals was not specified.
  | Using a version of the partition function of Stratmann and coworkers ('stratmann_smoother').
  | At each grid point, the set of atoms used to build the partition table is smoothly restricted to
  | only those atoms whose free-atom density would be non-zero at that grid point.
  Partitioning for Hartree potential was not defined. Using partition_type for integrals.
  | Adjusted default value of keyword multip_moments_threshold to:       0.10000000E-11
  | This value may affect high angular momentum components of the Hartree potential in periodic systems.
  Spin handling was not defined in control.in. Defaulting to unpolarized case.
  Angular momentum expansion for Kerker preconditioner not set explicitly.
  | Using default value of   0
  No explicit requirement for turning off preconditioner.
  | By default, it will be turned off when the charge convergence reaches
  | sc_accuracy_rho  =   0.100000E-05
  | sc_accuracy_eev  =   0.100000E-02
  | sc_accuracy_etot =   0.100000E-05
  No special mixing parameter while Kerker preconditioner is on.
  Using default: charge_mix_param =     0.0500.
  No q(lm)/r^(l+1) cutoff set for long-range Hartree potential.
  | Using default value of  0.100000E-09 .
  | Verify using the multipole_threshold keyword.
  Defaulting to new monopole extrapolation.
  Density update method: automatic selection selected.
  Using density matrix based charge density update.
  Using density matrix based charge density update.
  Using packed matrix style: index .
  Defaulting to use time-reversal symmetry for k-point grid.
------------------------------------------------------------


------------------------------------------------------------
          Reading geometry description geometry.in.
------------------------------------------------------------
 * Warning! You did not set the 'relativistic' flag in input file 'control.in'.
 * Since you are not attempting to treat any elements beyond Ca(Z=20), FHI-aims
 * will default to 'relativistic none'.
 * You must ensure that this is really what you want!!
 * For example, DO NOT compute total-energy differences between results from
 * different settings of the 'relativistic' flag.
  Input structure read successfully.
  The structure contains       48 atoms,  and a total of        512.000 electrons.

  Input geometry:
  | Unit cell:
  |        9.89799976        0.00000000        0.00000000
  |        0.00000000        9.89799976        0.00000000
  |        0.00000000        0.00000000        9.89799976
  | Atomic structure:
  |       Atom                x [A]            y [A]            z [A]
  |    1: Species Li            3.06901656        0.28034620        6.65626890
  |    2: Species Li            3.27704966        0.01998277        2.93737458
  |    3: Species Li            6.76264049        3.13737412        0.28978245
  |    4: Species Li            6.95784455        6.72841054       -0.01456660
  |    5: Species Li            0.31646410        6.80948403        3.18214197
  |    6: Species Li            9.55854939        6.66152376        6.85276969
  |    7: Species Li           -0.10740909        3.13269983        6.75453397
  |    8: Species Li            3.55647637        5.19035455        1.65871703
  |    9: Species Li            6.71238944        8.12775950        5.13947292
  |   10: Species Li            6.43104904        1.75350606        4.66624143
  |   11: Species Li            3.11256772        7.70999741        4.76924510
  |   12: Species Li            0.02386854        2.12038207        2.02082632
  |   13: Species Li            7.97577191        0.01540255        1.74201570
  |   14: Species Li            8.10859584        9.81875831        8.16767892
  |   15: Species Li            2.22704386        3.82159333        5.04734615
  |   16: Species Li            4.68932007        2.93042108        6.01416821
  |   17: Species Li            7.95430387        4.63819888        3.50488895
  |   18: Species Li            1.68405847        8.32522488        0.16917002
  |   19: Species Li            1.76685380        1.97819652        9.51433911
  |   20: Species Li            4.86293014        6.73895231        7.90078773
  |   21: Species P             0.00816094       -0.01179108        4.91830671
  |   22: Species P             4.89298477        0.06045355       -0.13401921
  |   23: Species P             0.05100948        4.98938230        0.07787225
  |   24: Species P             5.05720516        4.87144736        4.81818552
  |   25: Species S             1.15061719        8.64238980        6.10077103
  |   26: Species S             8.59654991        1.10640784        6.05623566
  |   27: Species S             8.72702953        8.68279298        3.72175948
  |   28: Species S             1.26631706        1.22970584        3.87626796
  |   29: Species S             6.07720035        1.29282681        8.59471616
  |   30: Species S             6.01238461        8.73707633        1.06840560
  |   31: Species S             3.67627995        8.77630900        8.57101348
  |   32: Species S             3.69696165        1.29069638        0.97346149
  |   33: Species S             8.72347505        5.95820739        1.44450692
  |   34: Species S             1.06545118        6.31045651        8.80241728
  |   35: Species S             8.75372655        3.78116550        8.83853334
  |   36: Species S             1.42076586        3.87978130        1.16287484
  |   37: Species S             6.08183376        6.25065374        3.71869580
  |   38: Species S             6.32505001        3.79218907        6.01152540
  |   39: Species S             4.08581361        3.61184732        3.52680091
  |   40: Species S             3.62892564        5.76026583        6.04798834
  |   41: Species Cl            2.36682059        2.49367495        7.25406970
  |   42: Species Cl            7.31343336        7.53938380        7.48433146
  |   43: Species Cl            4.73670718       -0.23273362        4.89295284
  |   44: Species Cl            5.16152379        5.03058140       -0.25834276
  |   45: Species Cl           -0.04972863        0.26024035        0.16637994
  |   46: Species Cl            0.03004227        4.95707353        5.02330180
  |   47: Species Cl            7.59638730        2.35190796        2.47201849
  |   48: Species Cl            2.47160531        7.52488886        2.46208931

  Lattice parameters for 3D lattice (in Angstroms) :     9.898000    9.898000    9.898000
  Angle(s) between unit vectors (in degrees)      :    90.000000   90.000000   90.000000

  |

  | The smallest distance between any two atoms is         1.84885464 AA.
  |
  | The first atom of this pair is atom number                     38 .
  | The second atom of this pair is atom number                    16 .
  | Wigner-Seitz cell of the first atom image           1     0     0 .
  | (The Wigner-Seitz cell of the second atom is 0 0 0  by definition.)

  Symmetry information by spglib:
  | Precision set to  0.1E-04
  | Number of Operations  : 1
  | Space group           : 1
  | International         : P1
  | Schoenflies           : C1^1

  Quantities derived from the lattice vectors:
  | Reciprocal lattice vector 1:  0.634793  0.000000  0.000000
  | Reciprocal lattice vector 2:  0.000000  0.634793  0.000000
  | Reciprocal lattice vector 3:  0.000000  0.000000  0.634793
  | Unit cell volume                               :   0.969711E+03  A^3

  Range separation radius for Ewald summation (hartree_convergence_parameter):      3.90166475 bohr.

  Fractional coordinates:
                         L1                L2                L3
       atom_frac         0.31006432        0.02832352        0.67248627  Li
       atom_frac         0.33108201        0.00201887        0.29676446  Li
       atom_frac         0.68323304        0.31697052        0.02927687  Li
       atom_frac         0.70295461        0.67977477       -0.00147167  Li
       atom_frac         0.03197253        0.68796567        0.32149344  Li
       atom_frac         0.96570515        0.67301717        0.69233884  Li
       atom_frac        -0.01085160        0.31649827        0.68241404  Li
       atom_frac         0.35931263        0.52438419        0.16758103  Li
       atom_frac         0.67815615        0.82115172        0.51924359  Li
       atom_frac         0.64973219        0.17715762        0.47143277  Li
       atom_frac         0.31446432        0.77894500        0.48183928  Li
       atom_frac         0.00241145        0.21422329        0.20416512  Li
       atom_frac         0.80579633        0.00155613        0.17599674  Li
       atom_frac         0.81921560        0.99199420        0.82518480  Li
       atom_frac         0.22499938        0.38609754        0.50993597  Li
       atom_frac         0.47376442        0.29606195        0.60761450  Li
       atom_frac         0.80362741        0.46859961        0.35410073  Li
       atom_frac         0.17014129        0.84110175        0.01709133  Li
       atom_frac         0.17850615        0.19985821        0.96123857  Li
       atom_frac         0.49130433        0.68083981        0.79822064  Li
       atom_frac         0.00082450       -0.00119126        0.49689905  P
       atom_frac         0.49434076        0.00610765       -0.01354003  P
       atom_frac         0.00515351        0.50407986        0.00786747  P
       atom_frac         0.51093203        0.49216483        0.48678376  P
       atom_frac         0.11624745        0.87314508        0.61636403  S
       atom_frac         0.86851385        0.11178095        0.61186460  S
       atom_frac         0.88169628        0.87722703        0.37601127  S
       atom_frac         0.12793666        0.12423781        0.39162134  S
       atom_frac         0.61398267        0.13061496        0.86832859  S
       atom_frac         0.60743431        0.88271131        0.10794157  S
       atom_frac         0.37141645        0.88667501        0.86593389  S
       atom_frac         0.37350593        0.13039972        0.09834931  S
       atom_frac         0.88133717        0.60196075        0.14593928  S
       atom_frac         0.10764308        0.63754866        0.88931274  S
       atom_frac         0.88439349        0.38201309        0.89296156  S
       atom_frac         0.14354070        0.39197630        0.11748584  S
       atom_frac         0.61445079        0.63150676        0.37570175  S
       atom_frac         0.63902305        0.38312681        0.60734750  S
       atom_frac         0.41279185        0.36490679        0.35631451  S
       atom_frac         0.36663222        0.58196262        0.61103137  S
       atom_frac         0.23912110        0.25193726        0.73288239  Cl
       atom_frac         0.73887993        0.76170782        0.75614585  Cl
       atom_frac         0.47855196       -0.02351320        0.49433754  Cl
       atom_frac         0.52147140        0.50824222       -0.02610050  Cl
       atom_frac        -0.00502411        0.02629222        0.01680945  Cl
       atom_frac         0.00303519        0.50081568        0.50750676  Cl
       atom_frac         0.76746691        0.23761447        0.24974930  Cl
       atom_frac         0.24970755        0.76024339        0.24874615  Cl

  Number of empty states per atom not set in control.in - providing a guess from actual geometry.
  | Total number of empty states used during s.c.f. cycle:      114
  If you use a very high smearing, use empty_states (per atom!) in control.in to increase this value.

  Structure-dependent array size parameters: 
  | Maximum number of distinct radial functions  :       43
  | Maximum number of basis functions            :     1692
  | Number of Kohn-Sham states (occupied + empty):      370
------------------------------------------------------------

------------------------------------------------------------
          Preparing all fixed parts of the calculation.
------------------------------------------------------------
  Determining machine precision:
    2.225073858507201E-308
  Setting up grids for atomic and cluster calculations.

  Creating wave function, potential, and density for free atoms.

  Species: Li

  List of occupied orbitals and eigenvalues:
    n    l              occ      energy [Ha]    energy [eV]
    1    0           2.0000        -1.901473       -51.7417
    2    0           1.0000        -0.103132        -2.8064


  Species: P

  List of occupied orbitals and eigenvalues:
    n    l              occ      energy [Ha]    energy [eV]
    1    0           2.0000       -76.356288     -2077.7603
    2    0           2.0000        -6.358286      -173.0178
    3    0           2.0000        -0.509419       -13.8620
    2    1           6.0000        -4.573976      -124.4642
    3    1           3.0000        -0.201560        -5.4847


  Species: S

  List of occupied orbitals and eigenvalues:
    n    l              occ      energy [Ha]    energy [eV]
    1    0           2.0000       -88.108280     -2397.5483
    2    0           2.0000        -7.732485      -210.4116
    3    0           2.0000        -0.629532       -17.1304
    2    1           6.0000        -5.750324      -156.4743
    3    1           4.0000        -0.257562        -7.0086


  Species: Cl

  List of occupied orbitals and eigenvalues:
    n    l              occ      energy [Ha]    energy [eV]
    1    0           2.0000      -100.710795     -2740.4802
    2    0           2.0000        -9.222997      -250.9705
    3    0           2.0000        -0.754245       -20.5241
    2    1           6.0000        -7.039872      -191.5647
    3    1           5.0000        -0.316221        -8.6048

  Creating fixed part of basis set: Ionic, confined, hydrogenic.
 
  Li                   hydrogenic:
 
  List of hydrogenic basis orbitals: 
    n    l      effective z      eigenvalue [eV]  inner max. [A]     outer max. [A]     outer radius [A]   
    2    1         1.600000        -8.7048           1.319365           1.319365           6.386418
    2    0         2.000000       -13.6052           0.203259           1.385485           6.232164
    3    2         2.600000       -10.2084           1.835332           1.835332           6.386418
    3    1         4.600000       -31.9883           0.343834           1.385485           5.381805
    2    1         1.800000       -11.0199           1.181903           1.181903           6.386418
    3    0         6.200000       -58.1113           0.062858           1.111823           4.371906
    4    2         4.700000       -18.7772           0.761113           2.401695           6.386418
    4    3         4.100000       -14.2833           2.073992           2.073992           6.386418
 
 
  P                    ion:

  List of free ionic orbitals and eigenvalues:
    n    l      energy [Ha]    energy [eV]
    1    0       -77.297133     -2103.3620
    2    0        -7.273914      -197.9333
    3    0        -1.267536       -34.4914
    2    1        -5.491316      -149.4263
    3    1        -0.913470       -24.8568


  List of ionic basis orbitals and eigenvalues:
    n    l      energy [Ha]    energy [eV]    outer radius [A]
    3    2        -0.458060       -12.4644       5.404780
    3    1        -0.913461       -24.8565       4.724723
    3    0        -1.267529       -34.4912       4.232463

 
  P                    hydrogenic:
 
  List of hydrogenic basis orbitals: 
    n    l      effective z      eigenvalue [eV]  inner max. [A]     outer max. [A]     outer radius [A]   
    4    3         6.200000       -32.6870           1.357793           1.357793           5.339109
    5    4         8.600000       -40.2502           1.534356           1.534356           5.404780
    4    2         6.200000       -32.6848           0.577014           1.820771           5.404780
 
 
  S                    ion:

  List of free ionic orbitals and eigenvalues:
    n    l      energy [Ha]    energy [eV]
    1    0       -89.127201     -2425.2745
    2    0        -8.724378      -237.4024
    3    0        -1.464668       -39.8556
    2    1        -6.744348      -183.5230
    3    1        -1.048520       -28.5317


  List of ionic basis orbitals and eigenvalues:
    n    l      energy [Ha]    energy [eV]    outer radius [A]
    3    2        -0.496514       -13.5108       5.386362
    3    0        -1.464662       -39.8555       3.967934

 
  S                    hydrogenic:
 
  List of hydrogenic basis orbitals: 
    n    l      effective z      eigenvalue [eV]  inner max. [A]     outer max. [A]     outer radius [A]   
    2    1         1.800000       -11.0118           1.168531           1.168531           5.452614
    4    3         7.000000       -41.6672           1.212182           1.212182           5.066981
    4    2         6.200000       -32.6848           0.582121           1.814567           5.386362
    5    4        10.800000       -63.4785           1.227092           1.227092           4.766538
 
 
  Cl                   ion:

  List of free ionic orbitals and eigenvalues:
    n    l      energy [Ha]    energy [eV]
    1    0      -101.807232     -2770.3157
    2    0       -10.290876      -280.0290
    3    0        -1.664625       -45.2967
    2    1        -8.110237      -220.6908
    3    1        -1.183915       -32.2160


  List of ionic basis orbitals and eigenvalues:
    n    l      energy [Ha]    energy [eV]    outer radius [A]
    3    2        -0.529392       -14.4055       5.389057
    3    0        -1.664620       -45.2966       3.780461

 
  Cl                   hydrogenic:
 
  List of hydrogenic basis orbitals: 
    n    l      effective z      eigenvalue [eV]  inner max. [A]     outer max. [A]     outer radius [A]   
    2    1         1.900000       -12.2741           1.113321           1.113321           5.389057
    4    3         7.400000       -46.5653           1.140877           1.140877           4.886961
    5    4        10.400000       -58.8635           1.273568           1.273568           4.886961
    3    2         3.300000       -16.4532           1.439178           1.439178           5.455343
 

  Adding cutoff potential to free-atom effective potential.
  Creating atomic-like basis functions for current effective potential.

  Species Li                  :

  List of atomic basis orbitals and eigenvalues:
    n    l      energy [Ha]    energy [eV]    outer radius [A]
    1    0        -1.901473       -51.7417       4.318785
    2    0        -0.103132        -2.8064       6.464971


  Species P                   :

  List of atomic basis orbitals and eigenvalues:
    n    l      energy [Ha]    energy [eV]    outer radius [A]
    1    0       -76.356288     -2077.7603       0.736837
    2    0        -6.358286      -173.0178       2.532824
    3    0        -0.509419       -13.8620       5.274236
    2    1        -4.573976      -124.4642       2.862183
    3    1        -0.201560        -5.4847       5.404780


  Species S                   :

  List of atomic basis orbitals and eigenvalues:
    n    l      energy [Ha]    energy [eV]    outer radius [A]
    1    0       -88.108280     -2397.5483       0.682391
    2    0        -7.732485      -210.4116       2.317169
    3    0        -0.629532       -17.1304       5.256262
    2    1        -5.750324      -156.4743       2.555240
    3    1        -0.257562        -7.0086       5.386362


  Species Cl                  :

  List of atomic basis orbitals and eigenvalues:
    n    l      energy [Ha]    energy [eV]    outer radius [A]
    1    0      -100.710795     -2740.4802       0.642251
    2    0        -9.222997      -250.9705       2.128190
    3    0        -0.754245       -20.5241       5.194994
    2    1        -7.039872      -191.5647       2.346844
    3    1        -0.316221        -8.6048       5.323577

  Assembling full basis from fixed parts.
  | Species Li :   atomic orbital   1 s accepted.
  | Species Li :    hydro orbital   3 s accepted.
  | Species Li :    hydro orbital   2 s accepted.
  | Species Li :   atomic orbital   2 s accepted.
  | Species Li :    hydro orbital   3 p accepted.
  | Species Li :    hydro orbital   2 p accepted.
  | Species Li :    hydro orbital   2 p accepted.
  | Species Li :    hydro orbital   3 d accepted.
  | Species Li :    hydro orbital   4 d accepted.
  | Species Li :    hydro orbital   4 f accepted.
  | Species P :   atomic orbital   1 s accepted.
  | Species P :   atomic orbital   2 s accepted.
  | Species P :    ionic orbital   3 s accepted.
  | Species P :   atomic orbital   3 s accepted.
  | Species P :   atomic orbital   2 p accepted.
  | Species P :    ionic orbital   3 p accepted.
  | Species P :   atomic orbital   3 p accepted.
  | Species P :    ionic orbital   3 d accepted.
  | Species P :    hydro orbital   4 d accepted.
  | Species P :    hydro orbital   4 f accepted.
  | Species P :    hydro orbital   5 g accepted.
  | Species S :   atomic orbital   1 s accepted.
  | Species S :   atomic orbital   2 s accepted.
  | Species S :    ionic orbital   3 s accepted.
  | Species S :   atomic orbital   3 s accepted.
  | Species S :   atomic orbital   2 p accepted.
  | Species S :   atomic orbital   3 p accepted.
  | Species S :    hydro orbital   2 p accepted.
  | Species S :    ionic orbital   3 d accepted.
  | Species S :    hydro orbital   4 d accepted.
  | Species S :    hydro orbital   4 f accepted.
  | Species S :    hydro orbital   5 g accepted.
  | Species Cl :   atomic orbital   1 s accepted.
  | Species Cl :   atomic orbital   2 s accepted.
  | Species Cl :    ionic orbital   3 s accepted.
  | Species Cl :   atomic orbital   3 s accepted.
  | Species Cl :   atomic orbital   2 p accepted.
  | Species Cl :   atomic orbital   3 p accepted.
  | Species Cl :    hydro orbital   2 p accepted.
  | Species Cl :    ionic orbital   3 d accepted.
  | Species Cl :    hydro orbital   3 d accepted.
  | Species Cl :    hydro orbital   4 f accepted.
  | Species Cl :    hydro orbital   5 g accepted.
 
  Basis size parameters after reduction:
  | Total number of radial functions:       43
  | Total number of basis functions :     1692
 
  Per-task memory consumption for arrays in subroutine allocate_ext:
  |          11.289720MB.
  Testing on-site integration grid accuracy.
  |  Species  Function  <phi|h_atom|phi> (log., in eV)  <phi|h_atom|phi> (rad., in eV)
           1        1                -51.7417001117                -51.7417000312
           1        2                 33.5927188637                 33.5926505054
           1        3                 69.1469416012                 69.1473382425
           1        4                 48.8336153902                 48.8810182289 ***
           1        5                 17.1749490570                 17.1749098864
           1        6                 32.1201183828                 32.1217831653
           1        7                  6.0166019876                  6.0249480535
           1        8                  4.9175332206                  4.9194842525
           1        9                 28.8010599263                 28.8011051086
           1       10                  9.9331480983                  9.9353515081
           2       11              -2077.7602992527              -2077.7602630746
           2       12               -173.0177635265               -173.0177629291
           2       13                -13.5620523038                -13.5620521963
           2       14                  6.3015351439                  6.3015396353
           2       15               -124.4642131574               -124.4642129967
           2       16                 -4.8468074573                 -4.8468065719
           2       17                  5.8113348591                  5.8108493787
           2       18                  5.1218113540                  5.1217878152
           2       19                 22.1386653152                 22.1386624883
           2       20                 19.3047268689                 19.3047231214
           2       21                 30.3235883931                 30.3235836780
           3       22              -2397.5482725833              -2397.5482291499
           3       23               -210.4116306505               -210.4116300246
           3       24                -16.8591546483                -16.8591544436
           3       25                  7.5848976656                  7.5849001027
           3       26               -156.4742745766               -156.4742744285
           3       27                 -7.0089268331                 -7.0089287934
           3       28                  6.8790437028                  6.8789536772
           3       29                  6.0023049431                  6.0023019693
           3       30                 19.5634804122                 19.5634829634
           3       31                 24.6809503130                 24.6809503093
           3       32                 47.5107032033                 47.5107040524
           4       33              -2740.4801671239              -2740.4801157382
           4       34               -250.9705040601               -250.9705032686
           4       35                -20.2716828479                -20.2716826054
           4       36                  9.0161300765                  9.0161279813
           4       37               -191.5646602865               -191.5646600866
           4       38                 -8.6049187754                 -8.6049181478
           4       39                  7.6458046208                  7.6458222053
           4       40                  6.9765726558                  6.9765744583
           4       41                 16.6546700656                 16.6546956458
           4       42                 28.0343243807                 28.0343233726
           4       43                 45.0370063060                 45.0370052039
 * Note: Onsite integrals marked "***" above are less accurate than
 * onsite_accuracy_threshold =    0.03000 eV. Usually, this is harmless.
 * When in doubt, tighten the "radial" and/or "radial_multiplier" flags to check.

  Preparing densities etc. for the partition functions (integrals / Hartree potential).

  Preparations completed.
  max(cpu_time)          :      0.464 s.
  Wall clock time (cpu1) :      0.465 s.
------------------------------------------------------------

------------------------------------------------------------
          Begin self-consistency loop: Initialization.

          Date     :  20220715, Time     :  132305.431
------------------------------------------------------------

  Initializing index lists of integration centers etc. from given atomic structure:
  Mapping all atomic coordinates to central unit cell.

  Initializing the k-points
          Using symmetry for reducing the k-points
  | k-points reduced from:       27 to       14
  | Number of k-points                             :        14
  The eigenvectors in the calculations are COMPLEX.
  | K-points in task   0:         0
  | K-points in task   1:         1
  | K-points in task   2:         1
  | K-points in task   3:         1
  | K-points in task   4:         1
  | K-points in task   5:         1
  | K-points in task   6:         1
  | K-points in task   7:         1
  | K-points in task   8:         1
  | K-points in task   9:         1
  | K-points in task  10:         1
  | K-points in task  11:         1
  | K-points in task  12:         1
  | K-points in task  13:         1
  | K-points in task  14:         1
  | K-points in task  15:         0
  | K-points in task  16:         0
  | K-points in task  17:         0
  | K-points in task  18:         0
  | K-points in task  19:         0
  | Number of basis functions in the Hamiltonian integrals :     14054
  | Number of basis functions in a single unit cell        :      1692
  | Number of centers in hartree potential         :      2181
  | Number of centers in hartree multipole         :      1531
  | Number of centers in electron density summation:      1220
  | Number of centers in basis integrals           :      1279
  | Number of centers in integrals                 :       482
  | Number of centers in hamiltonian               :      1477
  | Consuming         17 KiB for k_phase.
  | Number of super-cells (origin) [n_cells]                     :         343
  | Number of super-cells (after PM_index) [n_cells]             :          82
  | Number of super-cells in hamiltonian [n_cells_in_hamiltonian]:          82
  | Size of matrix packed + index [n_hamiltonian_matrix_size] :     8497125
  Partitioning the integration grid into batches with parallel hashing+maxmin method.
  | Number of batches:    10762
  | Maximal batch size:     120
  | Minimal batch size:      49
  | Average batch size:      94.374
  | Standard deviation of batch sizes:      15.078

  Integration load balanced across    20 MPI tasks.
  Work distribution over tasks is as follows:
  Task     0 has      50786 integration points.
  Task     1 has      50769 integration points.
  Task     2 has      50833 integration points.
  Task     3 has      50750 integration points.
  Task     4 has      50745 integration points.
  Task     5 has      50810 integration points.
  Task     6 has      50822 integration points.
  Task     7 has      50821 integration points.
  Task     8 has      50760 integration points.
  Task     9 has      50768 integration points.
  Task    10 has      50754 integration points.
  Task    11 has      50776 integration points.
  Task    12 has      50832 integration points.
  Task    13 has      50734 integration points.
  Task    14 has      50763 integration points.
  Task    15 has      50846 integration points.
  Task    16 has      50814 integration points.
  Task    17 has      50763 integration points.
  Task    18 has      50744 integration points.
  Task    19 has      50758 integration points.
  Initializing partition tables, free-atom densities, potentials, etc. across the integration grid (initialize_grid_storage).
  | initialize_grid_storage: Actual outermost partition radius vs. multipole_radius_free
  | (-- VB: in principle, multipole_radius_free should be larger, hence this output)
  | Species        1: Confinement radius =              7.000000000000000 AA, multipole_radius_free =              7.042572113910259 AA.
  | Species        1: outer_partition_radius set to              7.042572113910259 AA .
  | Species        2: Confinement radius =              6.000000000000000 AA, multipole_radius_free =              6.033387558927091 AA.
  | Species        2: outer_partition_radius set to              6.033387558927091 AA .
  | Species        3: Confinement radius =              6.000000000000000 AA, multipole_radius_free =              6.012827091137924 AA.
  | Species        3: outer_partition_radius set to              6.012827091137924 AA .
  | Species        4: Confinement radius =              6.000000000000000 AA, multipole_radius_free =              6.015836048499353 AA.
  | Species        4: outer_partition_radius set to              6.015836048499353 AA .
  | Original list of interatomic distances with        1279 x       1279 entries is created.
  | Net number of integration points:  1015648
  | of which are non-zero points    :   814438
  | Numerical average free-atom electrostatic potential    :    -10.24235380 eV
  Renormalizing the initial density to the exact electron count on the 3D integration grid.
  | Initial density: Formal number of electrons (from input files) :     512.0000000000
  | Integrated number of electrons on 3D grid     :     511.9998398256
  | Charge integration error                      :      -0.0001601744
  | Normalization factor for density and gradient :       1.0000003128
  Obtaining max. number of non-zero basis functions in each batch (get_n_compute_maxes).
  | Maximal number of non-zero basis functions:     1780 in task     0
  | Maximal number of non-zero basis functions:     1737 in task     1
  | Maximal number of non-zero basis functions:     1773 in task     2
  | Maximal number of non-zero basis functions:     1789 in task     3
  | Maximal number of non-zero basis functions:     1784 in task     4
  | Maximal number of non-zero basis functions:     1773 in task     5
  | Maximal number of non-zero basis functions:     1782 in task     6
  | Maximal number of non-zero basis functions:     1819 in task     7
  | Maximal number of non-zero basis functions:     1771 in task     8
  | Maximal number of non-zero basis functions:     1782 in task     9
  | Maximal number of non-zero basis functions:     1760 in task    10
  | Maximal number of non-zero basis functions:     1744 in task    11
  | Maximal number of non-zero basis functions:     1764 in task    12
  | Maximal number of non-zero basis functions:     1762 in task    13
  | Maximal number of non-zero basis functions:     1755 in task    14
  | Maximal number of non-zero basis functions:     1739 in task    15
  | Maximal number of non-zero basis functions:     1734 in task    16
  | Maximal number of non-zero basis functions:     1802 in task    17
  | Maximal number of non-zero basis functions:     1756 in task    18
  | Maximal number of non-zero basis functions:     1739 in task    19
  Allocating        0.000 MB for KS_eigenvector_complex
  Integrating Hamiltonian matrix: batch-based integration.
  Time summed over all CPUs for integration: real work      341.042 s, elapsed      345.341 s
  Integrating overlap matrix.
  Time summed over all CPUs for integration: real work      251.571 s, elapsed      254.177 s
  Decreasing sparse matrix size:
   Tolerance:  9.999999824516700E-014
   Hamiltonian matrix
  | Array has  7567737 nonzero elements out of  8497125 elements
  | Sparsity factor is 0.109
   Overlap matrix
  | Array has  7151654 nonzero elements out of  8497125 elements
  | Sparsity factor is 0.158
  New size of hamiltonian matrix:     7567869

  Updating Kohn-Sham eigenvalues and eigenvectors using ELSI and the ELPA eigensolver.

  Obtaining occupation numbers and chemical potential using ELSI.
  | Chemical potential (Fermi level):    -8.17006103eV
  Writing Kohn-Sham eigenvalues.
  K-point:       1 at    0.000000    0.000000    0.000000 (in units of recip. lattice)

  State    Occupation    Eigenvalue [Ha]    Eigenvalue [eV]
      1       2.00000        -100.762859        -2741.89690
      2       2.00000        -100.759935        -2741.81732
      3       2.00000        -100.759726        -2741.81165
      4       2.00000        -100.758779        -2741.78589
      5       2.00000        -100.757779        -2741.75865
      6       2.00000        -100.757294        -2741.74546
      7       2.00000        -100.755739        -2741.70315
      8       2.00000        -100.751094        -2741.57676
      9       2.00000         -88.174990        -2399.36356
     10       2.00000         -88.154799        -2398.81413
     11       2.00000         -88.152451        -2398.75024
     12       2.00000         -88.152428        -2398.74960
     13       2.00000         -88.152355        -2398.74764
     14       2.00000         -88.151955        -2398.73675
     15       2.00000         -88.151707        -2398.72999
     16       2.00000         -88.149544        -2398.67114
     17       2.00000         -88.148249        -2398.63590
     18       2.00000         -88.147249        -2398.60868
     19       2.00000         -88.146510        -2398.58858
     20       2.00000         -88.145856        -2398.57079
     21       2.00000         -88.145771        -2398.56847
     22       2.00000         -88.145313        -2398.55602
     23       2.00000         -88.144371        -2398.53038
     24       2.00000         -88.141618        -2398.45547
     25       2.00000         -76.409354        -2079.20431
     26       2.00000         -76.391463        -2078.71748
     27       2.00000         -76.390696        -2078.69659
     28       2.00000         -76.390580        -2078.69344
     29       2.00000          -9.277020         -252.44057
     30       2.00000          -9.274041         -252.35951
     31       2.00000          -9.273781         -252.35243
     32       2.00000          -9.272806         -252.32589
     33       2.00000          -9.271797         -252.29843
     34       2.00000          -9.271280         -252.28436
     35       2.00000          -9.269702         -252.24141
     36       2.00000          -9.264832         -252.10890
     37       2.00000          -7.802829         -212.32577
     38       2.00000          -7.782009         -211.75925
     39       2.00000          -7.779625         -211.69437
     40       2.00000          -7.779589         -211.69338
     41       2.00000          -7.779577         -211.69305
     42       2.00000          -7.779071         -211.67930
     43       2.00000          -7.778800         -211.67191
     44       2.00000          -7.776599         -211.61202
     45       2.00000          -7.775294         -211.57652
     46       2.00000          -7.774278         -211.54886
     47       2.00000          -7.773488         -211.52738
     48       2.00000          -7.772791         -211.50841
     49       2.00000          -7.772733         -211.50684
     50       2.00000          -7.772292         -211.49482
     51       2.00000          -7.771266         -211.46691
     52       2.00000          -7.768340         -211.38729
     53       2.00000          -7.093904         -193.03495
     54       2.00000          -7.093592         -193.02645
     55       2.00000          -7.093417         -193.02169
     56       2.00000          -7.091005         -192.95607
     57       2.00000          -7.090722         -192.94836
     58       2.00000          -7.090578         -192.94445
     59       2.00000          -7.090438         -192.94064
     60       2.00000          -7.090416         -192.94004
     61       2.00000          -7.090075         -192.93076
     62       2.00000          -7.089891         -192.92576
     63       2.00000          -7.089559         -192.91671
     64       2.00000          -7.088873         -192.89806
     65       2.00000          -7.088824         -192.89671
     66       2.00000          -7.088283         -192.88199
     67       2.00000          -7.088205         -192.87988
     68       2.00000          -7.088199         -192.87970
     69       2.00000          -7.087948         -192.87286
     70       2.00000          -7.087615         -192.86380
     71       2.00000          -7.086650         -192.83756
     72       2.00000          -7.086371         -192.82996
     73       2.00000          -7.086018         -192.82037
     74       2.00000          -7.081886         -192.70792
     75       2.00000          -7.081519         -192.69794
     76       2.00000          -7.081103         -192.68662
     77       2.00000          -6.418210         -174.64837
     78       2.00000          -6.399435         -174.13749
     79       2.00000          -6.398586         -174.11438
     80       2.00000          -6.398468         -174.11116
     81       2.00000          -5.821540         -158.41216
     82       2.00000          -5.820075         -158.37229
     83       2.00000          -5.818808         -158.33783
     84       2.00000          -5.800330         -157.83501
     85       2.00000          -5.799195         -157.80412
     86       2.00000          -5.798995         -157.79869
     87       2.00000          -5.798149         -157.77565
     88       2.00000          -5.797927         -157.76961
     89       2.00000          -5.797898         -157.76883
     90       2.00000          -5.797339         -157.75363
     91       2.00000          -5.797172         -157.74909
     92       2.00000          -5.797104         -157.74723
     93       2.00000          -5.796792         -157.73873
     94       2.00000          -5.796774         -157.73824
     95       2.00000          -5.796659         -157.73512
     96       2.00000          -5.796613         -157.73388
     97       2.00000          -5.796372         -157.72730
     98       2.00000          -5.796181         -157.72211
     99       2.00000          -5.796009         -157.71743
    100       2.00000          -5.795848         -157.71304
    101       2.00000          -5.795752         -157.71042
    102       2.00000          -5.795042         -157.69111
    103       2.00000          -5.793732         -157.65546
    104       2.00000          -5.793725         -157.65529
    105       2.00000          -5.793595         -157.65174
    106       2.00000          -5.792878         -157.63224
    107       2.00000          -5.792739         -157.62845
    108       2.00000          -5.792098         -157.61100
    109       2.00000          -5.791982         -157.60784
    110       2.00000          -5.791545         -157.59595
    111       2.00000          -5.791504         -157.59485
    112       2.00000          -5.791389         -157.59171
    113       2.00000          -5.790982         -157.58065
    114       2.00000          -5.790923         -157.57903
    115       2.00000          -5.790910         -157.57868
    116       2.00000          -5.790353         -157.56351
    117       2.00000          -5.790037         -157.55492
    118       2.00000          -5.790027         -157.55466
    119       2.00000          -5.789979         -157.55333
    120       2.00000          -5.789524         -157.54096
    121       2.00000          -5.789420         -157.53813
    122       2.00000          -5.789052         -157.52813
    123       2.00000          -5.788985         -157.52629
    124       2.00000          -5.788684         -157.51811
    125       2.00000          -5.787738         -157.49236
    126       2.00000          -5.786860         -157.46848
    127       2.00000          -5.785589         -157.43389
    128       2.00000          -5.785230         -157.42412
    129       2.00000          -4.634356         -126.10724
    130       2.00000          -4.633021         -126.07091
    131       2.00000          -4.632708         -126.06240
    132       2.00000          -4.614889         -125.57752
    133       2.00000          -4.614698         -125.57233
    134       2.00000          -4.614444         -125.56541
    135       2.00000          -4.614053         -125.55478
    136       2.00000          -4.613928         -125.55136
    137       2.00000          -4.613864         -125.54963
    138       2.00000          -4.613637         -125.54346
    139       2.00000          -4.613584         -125.54201
    140       2.00000          -4.613584         -125.54200
    141       2.00000          -1.953109          -53.14679
    142       2.00000          -1.922795          -52.32191
    143       2.00000          -1.922167          -52.30484
    144       2.00000          -1.921746          -52.29336
    145       2.00000          -1.921414          -52.28434
    146       2.00000          -1.919346          -52.22807
    147       2.00000          -1.918081          -52.19363
    148       2.00000          -1.917523          -52.17846
    149       2.00000          -1.917349          -52.17371
    150       2.00000          -1.917213          -52.17003
    151       2.00000          -1.917024          -52.16487
    152       2.00000          -1.916788          -52.15846
    153       2.00000          -1.916568          -52.15248
    154       2.00000          -1.915397          -52.12060
    155       2.00000          -1.914094          -52.08516
    156       2.00000          -1.913078          -52.05750
    157       2.00000          -1.912949          -52.05399
    158       2.00000          -1.912621          -52.04506
    159       2.00000          -1.912258          -52.03518
    160       2.00000          -1.910099          -51.97643
    161       2.00000          -0.846235          -23.02723
    162       2.00000          -0.833862          -22.69053
    163       2.00000          -0.830964          -22.61167
    164       2.00000          -0.828839          -22.55385
    165       2.00000          -0.828370          -22.54111
    166       2.00000          -0.826419          -22.48800
    167       2.00000          -0.825980          -22.47606
    168       2.00000          -0.823977          -22.42155
    169       2.00000          -0.818874          -22.28270
    170       2.00000          -0.817577          -22.24739
    171       2.00000          -0.816537          -22.21910
    172       2.00000          -0.815368          -22.18730
[...]
    306       0.00000           0.006064            0.16501
    307       0.00000           0.008638            0.23504
    308       0.00000           0.011115            0.30246
    309       0.00000           0.012499            0.34011
    310       0.00000           0.014438            0.39289
    311       0.00000           0.016033            0.43629
    312       0.00000           0.017689            0.48134
    313       0.00000           0.020189            0.54936
    314       0.00000           0.022657            0.61652
    315       0.00000           0.027466            0.74739
    316       0.00000           0.027911            0.75949
    317       0.00000           0.028440            0.77390
    318       0.00000           0.030994            0.84339
    319       0.00000           0.032263            0.87793
    320       0.00000           0.035838            0.97520
    321       0.00000           0.037301            1.01502
    322       0.00000           0.039363            1.07112
    323       0.00000           0.040532            1.10293
    324       0.00000           0.042583            1.15873
    325       0.00000           0.043708            1.18936
    326       0.00000           0.045513            1.23847
    327       0.00000           0.046689            1.27047
    328       0.00000           0.049071            1.33528
    329       0.00000           0.050844            1.38355
    330       0.00000           0.052643            1.43250
    331       0.00000           0.055236            1.50305
    332       0.00000           0.059435            1.61730
    333       0.00000           0.061312            1.66837
    334       0.00000           0.065100            1.77146
    335       0.00000           0.066068            1.79779
    336       0.00000           0.066850            1.81909
    337       0.00000           0.068271            1.85775
    338       0.00000           0.070859            1.92818
    339       0.00000           0.071222            1.93804
    340       0.00000           0.072840            1.98209
    341       0.00000           0.074128            2.01712
    342       0.00000           0.077708            2.11453
    343       0.00000           0.078772            2.14349
    344       0.00000           0.080918            2.20189
    345       0.00000           0.081903            2.22869
    346       0.00000           0.086167            2.34471
    347       0.00000           0.087833            2.39005
    348       0.00000           0.092521            2.51763
    349       0.00000           0.093480            2.54372
    350       0.00000           0.100005            2.72126
    351       0.00000           0.101372            2.75848
    352       0.00000           0.104670            2.84820
    353       0.00000           0.107950            2.93747
    354       0.00000           0.110753            3.01373
    355       0.00000           0.116396            3.16730
    356       0.00000           0.116906            3.18118
    357       0.00000           0.120854            3.28860
    358       0.00000           0.122153            3.32394
    359       0.00000           0.126218            3.43457
    360       0.00000           0.129736            3.53028
    361       0.00000           0.135584            3.68942
    362       0.00000           0.136567            3.71618
    363       0.00000           0.137937            3.75347
    364       0.00000           0.139958            3.80846
    365       0.00000           0.144405            3.92946
    366       0.00000           0.146992            3.99986
    367       0.00000           0.148866            4.05085
    368       0.00000           0.151684            4.12752
    369       0.00000           0.158040            4.30048
    370       0.00000           0.159480            4.33968

  What follows are estimated values for band gap, HOMO, LUMO, etc.
  | They are estimated on a discrete k-point grid and not necessarily exact.
  | For converged numbers, create a DOS and/or band structure plot on a denser k-grid.

  Highest occupied state (VBM) at     -7.30128975 eV (relative to internal zero)
  | Occupation number:      2.00000000
  | K-point:       1 at    0.000000    0.000000    0.000000 (in units of recip. lattice)

  Lowest unoccupied state (CBM) at    -5.17198711 eV (relative to internal zero)
  | Occupation number:      0.00000000
  | K-point:       1 at    0.000000    0.000000    0.000000 (in units of recip. lattice)

  ESTIMATED overall HOMO-LUMO gap:      2.12930264 eV between HOMO at k-point 1 and LUMO at k-point 1
  | This appears to be a direct band gap.
  The gap value is above 0.2 eV. Unless you are using a very sparse k-point grid,
  this system is most likely an insulator or a semiconductor.

  Self-consistency cycle converged.

  End self-consistency iteration #    20       :  max(cpu_time)    wall_clock(cpu1)
  | Time for this iteration                    :      373.468 s         373.518 s
  | Charge density & force component update    :      331.112 s         331.154 s
  | Density mixing                             :        0.021 s           0.021 s
  | Hartree multipole update                   :        0.013 s           0.013 s
  | Hartree multipole summation                :       20.879 s          20.882 s
  | Integration                                :       17.253 s          17.254 s
  | Solution of K.-S. eqns.                    :        4.186 s           4.186 s
  | Total energy evaluation                    :        0.003 s           0.004 s

  Partial memory accounting:
  | Current value for overall tracked memory usage on task 0  :         151.360 MB
  | Peak value for overall tracked memory usage on task 0     :         226.770 MB after allocating temp_ham_ovlp
  | Largest tracked array allocation on task 0 so far         :          67.977 MB  when allocating overlap_matrix
  Note:  These values currently only include a subset of arrays which are explicitly tracked.
  The "true" memory usage will be greater.
------------------------------------------------------------
  |------------------------------------------
  | Final ELSI Output
  |------------------------------------------
  | Number of basis functions :         1692
  | Number of electrons       :        512.0
  | Number of states          :          370
  | Solver                    :         ELPA
  | Parallel mode             :  SINGLE_PROC
  | Matrix format             :  BLACS_DENSE
  |------------------------------------------
  | ELSI Project (c)  elsi-interchange.org
  |------------------------------------------
  Removing unitary transformations (pure translations, rotations) from forces on atoms.
  Atomic forces before filtering:
  | Net force on center of mass :   0.199860E-02  0.486384E-02 -0.408129E-03 eV/A
  Atomic forces after filtering:
  | Net force on center of mass :   0.404201E-15  0.298273E-15  0.457166E-15 eV/A

  Energy and forces in a compact form:
  | Total energy uncorrected      :         -0.314747648684585E+06 eV
  | Total energy corrected        :         -0.314747648684585E+06 eV  <-- do not rely on this value for anything but (periodic) metals
  | Electronic free energy        :         -0.314747648684585E+06 eV
  Total atomic forces (unitary forces cleaned) [eV/Ang]:
  |   1         -0.145268725890059E+00         -0.930378822007706E-01          0.172805076326789E+00
  |   2         -0.320728952213281E-01         -0.264603983301469E-01         -0.145418030668296E+00
  |   3         -0.223832803915574E+00          0.810380208964900E-01         -0.225527332672620E+00
  |   4         -0.156104072603150E+00         -0.112395073649000E+00         -0.634605648163275E-02
  |   5         -0.949893990743192E-02         -0.119048409771681E-03         -0.200951815089520E-01
  |   6         -0.109724578167627E-01          0.739234435330220E-02          0.492509093704093E-01
  |   7          0.669701282602729E-01         -0.235939825893208E-01          0.447878123689723E-01
  |   8          0.699495037678676E-01          0.990216638986425E-01         -0.299755530994875E+00
  |   9          0.835366262031395E-01          0.925900127208551E-02          0.703970306214307E-01
  |  10          0.557437122469024E+00         -0.241951821266658E+00         -0.369620804956073E+00
  |  11         -0.497131538376906E-01         -0.242538667147990E-01         -0.356634713201490E-01
  |  12          0.745387389246702E-03          0.415561298084194E-02         -0.551256683619516E-01
  |  13         -0.454451257888549E-01         -0.365899389282821E-02         -0.710538663046214E-01
  |  14         -0.110884899236471E+00          0.140499729379197E-01          0.711472918293059E-01
  |  15         -0.347462219396701E+00          0.821454745721141E-01          0.324650163659478E-01
  |  16         -0.432304730249719E+01         -0.255936244681311E+01          0.111068204359758E+01
  |  17          0.346607662447235E-01         -0.190244997531998E-01         -0.604014993912253E-01
  |  18          0.373019245408922E-01          0.157691579260167E-01         -0.189365116037971E-01
  |  19          0.104863595336641E+00          0.342347186954771E-01         -0.916686080408343E-02
  |  20          0.297738774558689E-01         -0.160297513067656E+00          0.206206652592513E+00
  |  21         -0.125997850926384E-01         -0.305666533511237E-01          0.170241269719347E-01
  |  22          0.342720294394818E+00          0.264231376810442E+00         -0.294588496356024E+00
  |  23         -0.114454999951122E-01          0.106863781798393E-01         -0.443756513175074E-01
  |  24          0.271076610474889E+00          0.166173251768388E+01         -0.540581746873877E+00
  |  25          0.538218966243131E-01         -0.357636947244622E-01          0.183376421681623E-01
  |  26         -0.981159749874631E-01          0.422619490263922E-01          0.349800790236126E-01
  |  27         -0.427840783526984E-01         -0.349042430299258E-01         -0.331475885024326E-01
  |  28          0.936020377548512E-01          0.514942581311868E-01         -0.466416754021927E-01
  |  29         -0.989357883352811E-02         -0.205201213797571E+00         -0.719694145888754E-02
  |  30          0.481298857527174E-01         -0.835078301461291E-01          0.160055408745206E+00
  |  31         -0.146474595458917E+00         -0.742780152333281E-01         -0.602928513167092E-01
  |  32         -0.139096869159926E+00         -0.314778907742539E-01          0.189817094499404E+00
  |  33         -0.494930994872276E-03          0.426617642166057E-01          0.946137349433170E-01
  |  34          0.699729828413852E-02          0.773765033158678E-01         -0.288181042070556E-01
  |  35          0.279409874226533E-01         -0.388283974158049E-01         -0.226024436516328E-01
  |  36          0.401164886848369E-01         -0.675667800851227E-01          0.635480973125706E-01
  |  37         -0.372185537154682E-01         -0.849619666200294E-01          0.170755774883737E-01
  |  38          0.375434216538215E+01          0.164405074845164E+01         -0.148880710146269E+00
  |  39          0.204099222811509E-01         -0.496230137093108E+00          0.411618588518850E+00
  |  40          0.665547505723066E-01         -0.217281884473060E+00         -0.176149052537895E+00
  |  41          0.680839842408070E-01         -0.413779257510768E-02         -0.436649467757782E+00
  |  42          0.231134233170661E-01         -0.887979741053014E-02         -0.945811166554393E-01
  |  43          0.327859287605521E-01          0.242118024873654E+00          0.470991735815714E-01
  |  44          0.120375421313376E+00          0.289442508182647E+00          0.250371227111873E+00
  |  45          0.123801601069090E-01          0.982596897656874E-02          0.240547410167748E-01
  |  46         -0.543379105356251E-02         -0.162392545571869E-02          0.198184580966398E-02
  |  47         -0.261524054921098E-01          0.107817571794785E-01          0.101317484389686E+00
  |  48          0.163224722123033E-01         -0.143639736885547E-01          0.619800065980309E-01

  ------------------------------------ 
  Start decomposition of the XC Energy 
  ------------------------------------ 
  X and C from original XC functional choice 
  Hartree-Fock Energy :          0.000000000 Ha              0.000000000 eV
  X Energy            :       -745.163522268 Ha         -20276.931119808 eV
  C Energy            :        -19.299818322 Ha           -525.174777150 eV
  Total XC Energy     :       -764.463340590 Ha         -20802.105896958 eV
  ------------------------------------ 
  LDA X and C from self-consistent density 
  X Energy LDA        :       -689.742375349 Ha         -18768.844981578 eV
  C Energy LDA        :        -38.806543674 Ha          -1055.979781028 eV
  ------------------------------------ 
  End decomposition of the XC Energy 
  ------------------------------------ 

------------------------------------------------------------

------------------------------------------------------------------------------
  Final output of selected total energy values:

  The following output summarizes some interesting total energy values
  at the end of a run (AFTER all relaxation, molecular dynamics, etc.).

  | Total energy of the DFT / Hartree-Fock s.c.f. calculation      :        -314747.648684585 eV
  | Final zero-broadening corrected energy (caution - metals only) :        -314747.648684585 eV
  | For reference only, the value of 1 Hartree used in FHI-aims is :             27.211384500 eV

  Before relying on these values, please be sure to understand exactly which
  total energy value is referred to by a given number. Different objects may
  all carry the same name 'total energy'. Definitions:

  Total energy of the DFT / Hartree-Fock s.c.f. calculation:
  | Note that this energy does not include ANY quantities calculated after the
  | s.c.f. cycle, in particular not ANY RPA, MP2, etc. many-body perturbation terms.

  Final zero-broadening corrected energy:
  | For metallic systems only, a broadening of the occupation numbers at the Fermi
  | level can be extrapolated back to zero broadening by an electron-gas inspired
  | formula. For all systems that are not real metals, this value can be
  | meaningless and should be avoided.

------------------------------------------------------------------------------
  Methods described in the following list of references were used in this FHI-aims run.
  If you publish the results, please make sure to cite these reference if they apply.
  FHI-aims is an academic code, and for our developers (often, Ph.D. students
  and postdocs), scientific credit in the community is essential.
  Thank you for helping us!

  For any use of FHI-aims, please cite:

    Volker Blum, Ralf Gehrke, Felix Hanke, Paula Havu, Ville Havu,
    Xinguo Ren, Karsten Reuter, and Matthias Scheffler
    'Ab initio molecular simulations with numeric atom-centered orbitals'
    Computer Physics Communications 180, 2175-2196 (2009)
    http://dx.doi.org/10.1016/j.cpc.2009.06.022


  The provided symmetry information was generated with SPGlib:

    Atsushi Togo, Yusuke Seto, Dimitar Pashov
    SPGlib 1.7.3 obtained from http://spglib.sourceforge.net
    Copyright (C) 2008 Atsushi Togo


  The scalable eigensolver library ELPA was used in your run.
  ELPA is essential especially for large systems on hundreds or thousands of CPUs.
  For ELPA, please cite:

    Andreas Marek, Volker Blum, Rainer Johanni, Ville Havu, Bruno Lang,
    Thomas Auckenthaler, Alexander Heinecke, Hans-Joachim Bungartz, and Hermann Lederer,
    'The ELPA Library - Scalable Parallel Eigenvalue Solutions
    for Electronic Structure Theory and Computational Science'
    The Journal of Physics: Condensed Matter 26, 213201 (2014).
    http://dx.doi.org/10.1088/0953-8984/26/21/213201


  The ELSI infrastructure was used in your run to solve the Kohn-Sham electronic structure.
  Please check out http://elsi-interchange.org to learn more.
  If scalability is important for your project, please acknowledge ELSI by citing:

    V. W-z. Yu, F. Corsetti, A. Garcia, W. P. Huhn, M. Jacquelin, W. Jia,
    B. Lange, L. Lin, J. Lu, W. Mi, A. Seifitokaldani, A. Vazquez-Mayagoitia,
    C. Yang, H. Yang, and V. Blum
    'ELSI: A unified software interface for Kohn-Sham electronic structure solvers'
    Computer Physics Communications 222, 267-285 (2018).
    http://dx.doi.org/10.1016/j.cpc.2017.09.007


  For the real-space grid partitioning and parallelization used in this calculation, please cite:

    Ville Havu, Volker Blum, Paula Havu, and Matthias Scheffler,
    'Efficient O(N) integration for all-electron electronic structure calculation'
    'using numerically tabulated basis functions'
    Journal of Computational Physics 228, 8367-8379 (2009).
    http://dx.doi.org/10.1016/j.jcp.2009.08.008

  Of course, there are many other important community references, e.g., those cited in the
  above references. Our list is limited to references that describe implementations in the
  FHI-aims code. The reason is purely practical (length of this list) - please credit others as well.

 * A warning was issued further up regarding the CPU load.
   Some CPUs do not participate in the eigenvalue solution.
   In corner cases, this may be the correct behavior. Otherwise,
   consider using a scalapack/elpa version of the code for a parallel treatment.

------------------------------------------------------------
          Leaving FHI-aims.
          Date     :  20220715, Time     :  135257.982

          Computational steps:
          | Number of self-consistency cycles          :           20
          | Number of SCF (re)initializations          :            1

          Detailed time accounting                     :  max(cpu_time)    wall_clock(cpu1)
          | Total time                                 :     1792.666 s        1793.114 s
          | Preparation time                           :        0.464 s           0.465 s
          | Boundary condition initalization           :        0.412 s           0.412 s
          | Grid partitioning                          :        1.415 s           1.415 s
          | Preloading free-atom quantities on grid    :        0.035 s           0.035 s
          | Free-atom superposition energy             :        0.644 s           0.644 s
          | Total time for integrations                :      376.670 s         376.697 s
          | Total time for solution of K.-S. equations :       90.479 s          90.491 s
          | Total time for density & force components  :     1099.422 s        1099.455 s
          | Total time for mixing & preconditioning    :       65.469 s          65.521 s
          | Total time for Hartree multipole update    :        0.267 s           0.264 s
          | Total time for Hartree multipole sum       :      151.717 s         151.760 s
          | Total time for total energy evaluation     :        0.011 s           0.016 s

          Partial memory accounting:
          | Residual value for overall tracked memory usage across tasks :           0.000 MB (should be 0.000 MB)
          | Peak values for overall tracked memory usage (after allocating temp_ham_ovlp):
          |   Minimum:      226.770 MB (on task  1)
          |   Maximum:      344.640 MB (on task  2)
          |   Average:      309.279 MB
          | Largest tracked array allocation (overlap_matrix):
          |   Minimum:       67.977 MB (on task  1)
          |   Maximum:       67.977 MB (on task  1)
          |   Average:       67.977 MB
          Note:  These values currently only include a subset of arrays which are explicitly tracked.
          The "true" memory usage will be greater.

          Have a nice day.
------------------------------------------------------------
