  MPI-parallelism will be employed.
------------------------------------------------------------
          Invoking FHI-aims ...
          Version 171221_1
          Compiled on 2020/09/23 at 19:46:43 on host login.service.

          When using FHI-aims, please cite the following reference:

          Volker Blum, Ralf Gehrke, Felix Hanke, Paula Havu,
          Ville Havu, Xinguo Ren, Karsten Reuter, and Matthias Scheffler,
          'Ab Initio Molecular Simulations with Numeric Atom-Centered Orbitals',
          Computer Physics Communications 180, 2175-2196 (2009)

          For any questions about FHI-aims, please visit the aimsclub website
          with its forums and wiki. Contributions to both the forums and the
          wiki are warmly encouraged - they are for you, and everyone is welcome there.

------------------------------------------------------------



  Date     :  20220723, Time     :  170829.627
  Time zero on CPU 1             :   0.852570000000000E-01  s.
  Internal wall clock time zero  :           427828109.627  s.

  FHI-aims created a unique identifier for this run for later identification
  aims_uuid : 9AD3564D-2111-48FD-A951-1867B2C96699

  Using       20 parallel tasks.
  Task        0 on host node043 reporting.
  Task        1 on host node043 reporting.
  Task        2 on host node043 reporting.
  Task        3 on host node043 reporting.
  Task        4 on host node043 reporting.
  Task        5 on host node043 reporting.
  Task        6 on host node043 reporting.
  Task        7 on host node043 reporting.
  Task        8 on host node043 reporting.
  Task        9 on host node043 reporting.
  Task       10 on host node043 reporting.
  Task       11 on host node043 reporting.
  Task       12 on host node043 reporting.
  Task       13 on host node043 reporting.
  Task       14 on host node043 reporting.
  Task       15 on host node043 reporting.
  Task       16 on host node043 reporting.
  Task       17 on host node043 reporting.
  Task       18 on host node043 reporting.
  Task       19 on host node043 reporting.

  Performing system and environment tests:
  *** Environment variable OMP_NUM_THREADS is not set
  *** For performance reasons you might want to set it to 1
  | Maximum stacksize for task 0: unlimited
  | Maximum stacksize for task 1: unlimited
  | Maximum stacksize for task 2: unlimited
  | Maximum stacksize for task 3: unlimited
  | Maximum stacksize for task 4: unlimited
  | Maximum stacksize for task 5: unlimited
  | Maximum stacksize for task 6: unlimited
  | Maximum stacksize for task 7: unlimited
  | Maximum stacksize for task 8: unlimited
  | Maximum stacksize for task 9: unlimited
  | Maximum stacksize for task 10: unlimited
  | Maximum stacksize for task 11: unlimited
  | Maximum stacksize for task 12: unlimited
  | Maximum stacksize for task 13: unlimited
  | Maximum stacksize for task 14: unlimited
  | Maximum stacksize for task 15: unlimited
  | Maximum stacksize for task 16: unlimited
  | Maximum stacksize for task 17: unlimited
  | Maximum stacksize for task 18: unlimited
  | Maximum stacksize for task 19: unlimited
  | Current stacksize for task 0: unlimited
  | Current stacksize for task 1: unlimited
  | Current stacksize for task 2: unlimited
  | Current stacksize for task 3: unlimited
  | Current stacksize for task 4: unlimited
  | Current stacksize for task 5: unlimited
  | Current stacksize for task 6: unlimited
  | Current stacksize for task 7: unlimited
  | Current stacksize for task 8: unlimited
  | Current stacksize for task 9: unlimited
  | Current stacksize for task 10: unlimited
  | Current stacksize for task 11: unlimited
  | Current stacksize for task 12: unlimited
  | Current stacksize for task 13: unlimited
  | Current stacksize for task 14: unlimited
  | Current stacksize for task 15: unlimited
  | Current stacksize for task 16: unlimited
  | Current stacksize for task 17: unlimited
  | Current stacksize for task 18: unlimited
  | Current stacksize for task 19: unlimited
  | Checking for scalapack...
  | Testing pdtran()...
  | All pdtran() tests passed.

  Obtaining array dimensions for all initial allocations:
  
  -----------------------------------------------------------------------
  Parsing control.in (first pass over file, find array dimensions only).
  The contents of control.in will be repeated verbatim below
  unless switched off by setting 'verbatim_writeout .false.' .
  in the first line of control.in .
  -----------------------------------------------------------------------
  
  #===============================================================================
  # FHI-aims file: ./control.in
  # Created using the Atomic Simulation Environment (ASE)
  # Wed Mar 24 12:41:28 2021
  #===============================================================================
  xc                                 pbe
  sc_accuracy_etot                   1e-06
  sc_accuracy_eev                    0.001
  sc_accuracy_rho                    1e-06
  sc_accuracy_forces                 0.0001
  friction_temperature               300  # default 300
  
    k_grid                           3  3  3
  
  
  ################################################################################
  #
  #  FHI-aims code project
  #  VB, Fritz-Haber Institut, 2009
  #
  #  Suggested "light" defaults for Li atom (to be pasted into control.in file)
  #  Be sure to double-check any results obtained with these settings for post-processing,
  #  e.g., with the "tight" defaults and larger basis sets.
  #
  ################################################################################
    species        Li
  #     global species definitions
      nucleus             3
      mass                6.941
  #
      l_hartree           4
  #
      cut_pot             3.5  1.5  1.0
      basis_dep_cutoff    1e-4
  #
      radial_base         29 5.0
      radial_multiplier   1
      angular_grids       specified
        division   0.4484  110
        division   0.5659  194
        division   0.6315  302
  #      division   0.6662  434
  #      division   0.8186  590
  #      division   0.9037  770
  #      division   6.2760  974
  #      outer_grid   974
        outer_grid   302
  ################################################################################
  #
  #  Definition of "minimal" basis
  #
  ################################################################################
  #     valence basis states
      valence      2  s   1.
  #     ion occupancy
      ion_occ      1  s   2.
  ################################################################################
  #
  #  Suggested additional basis functions. For production calculations,
  #  uncomment them one after another (the most important basis functions are
  #  listed first).
  #
  #  Constructed for dimers: 1.80 A, 2.25 A, 2.75 A, 3.50 A, 4.50 A
  #
  ################################################################################
  #  "First tier" - improvements: -189.23 meV to -6.35 meV
       hydro 2 p 1.6
       hydro 2 s 2
       hydro 3 d 2.6
  #  "Second tier" - improvements: -4.69 meV to -0.41 meV
  #     hydro 3 p 4.6
  #     hydro 2 p 1.8
  #     hydro 3 s 6.2
  #     hydro 4 d 4.7
  #     hydro 4 f 4.1
  #  "Third tier" - improvements: -0.20 meV to -0.15 meV
  #     hydro 4 d 0.95
  #     hydro 3 p 6.2
  #     hydro 3 s 1.7
  #  Further functions, listed for completeness
  #     VB: The following functions are only listed for completeness; test very
  #         carefully before any kind of production use. From the point of view
  #         of the basis construction, their main role is to fill up space,
  #         and they are solely determined by the location of the cutoff potential.
  #     hydro 3 p 0.1  # -0.15 meV
  #     hydro 4 d 5    # -0.12 meV
  #     hydro 4 f 0.1  # -0.14 meV
  #     hydro 5 g 0.1  # -0.06 meV
  
  
  ################################################################################
  #
  #  FHI-aims code project
  #  VB, Fritz-Haber Institut, 2010
  #
  #  Suggested "light" defaults for P atom (to be pasted into control.in file)
  #  Be sure to double-check any results obtained with these settings for post-processing,
  #  e.g., with the "tight" defaults and larger basis sets.
  #
  ################################################################################
    species        P
  #     global species definitions
      nucleus             15
      mass                30.973762
  #
      l_hartree           4
  #
      cut_pot             3.5          1.5  1.0
      basis_dep_cutoff    1e-4
  #
      radial_base         43 5.0
      radial_multiplier   1
      angular_grids       specified
        division   0.5527   50
        division   0.8801  110
        division   1.1447  194
        division   1.3165  302
  #      division   1.4113  434
  #      division   1.4781  590
  #      division   1.5482  770
  #      division   1.5845  974
  #      division   2.2606 1202
        outer_grid  302
  ################################################################################
  #
  #  Definition of "minimal" basis
  #
  ################################################################################
  #     valence basis states
      valence      3  s   2.
      valence      3  p   3.
  #     ion occupancy
      ion_occ      3  s   1.
      ion_occ      3  p   2.
  ################################################################################
  #
  #  Suggested additional basis functions. For production calculations,
  #  uncomment them one after another (the most important basis functions are
  #  listed first).
  #
  #  Constructed for dimers: 1.625 A, 1.875 A, 2.5 A, 3.25 A, 4.0 A
  #
  ################################################################################
  #  "First tier" - improvements: -726.20 meV to -35.91 meV
       ionic 3 d auto
       ionic 3 p auto
  #     hydro 4 f 6.2
  #     hydro 5 g 8.6
       ionic 3 s auto
  #  "Second tier" - improvements: -16.02 meV to -1.71 meV
  #     hydro 4 d 6.2
  #     hydro 4 p 9.2
  #     hydro 5 f 9.8
  #     hydro 1 s 0.7
  #     hydro 5 g 13.2
  #  "Third tier" - improvements: -1.82 meV to -0.20 meV
  #     hydro 3 p 2.5
  #     hydro 4 d 6.4
  #     hydro 5 f 11.2
  #     hydro 2 s 1.5
  #  "Fourth tier" - improvements: -0.91 meV to -0.17 meV
  #     hydro 3 d 16.8
  #     hydro 5 g 18
  #     hydro 4 p 4.5
  #     hydro 3 s 2.1
  #  Further basis functions that fell out of the optimization - < -0.09 meV
  #     hydro 4 p 10.4
  #     hydro 4 d 17.6
  #     hydro 4 s 11.2
  ################################################################################
  #
  #  FHI-aims code project
  #  VB, Fritz-Haber Institut, 2009
  #
  #  Suggested "light" defaults for S atom (to be pasted into control.in file)
  #  Be sure to double-check any results obtained with these settings for post-processing,
  #  e.g., with the "tight" defaults and larger basis sets.
  #
  ################################################################################
    species        S
  #     global species definitions
      nucleus             16
      mass                32.065
  #
      l_hartree           4
  #
      cut_pot             3.5          1.5  1.0
      basis_dep_cutoff    1e-4
  #
      radial_base         44 5.0
      radial_multiplier   1
      angular_grids       specified
        division   0.4665  110
        division   0.5810  194
        division   0.7139  302
  #      division   0.8274  434
  #      division   0.9105  590
  #      division   1.0975  770
  #      division   1.2028  974
  #      outer_grid  974
        outer_grid  302
  ################################################################################
  #
  #  Definition of "minimal" basis
  #
  ################################################################################
  #     valence basis states
      valence      3  s   2.
      valence      3  p   4.
  #     ion occupancy
      ion_occ      3  s   1.
      ion_occ      3  p   3.
  ################################################################################
  #
  #  Suggested additional basis functions. For production calculations,
  #  uncomment them one after another (the most important basis functions are
  #  listed first).
  #
  #  Constructed for dimers: 1.6 A, 1.9 A, 2.5 A, 3.25 A, 4.0 A
  #
  ################################################################################
  #  "First tier" - improvements: -652.81 meV to -45.53 meV
       ionic 3 d auto
       hydro 2 p 1.8
  #     hydro 4 f 7
       ionic 3 s auto
  #  "Second tier" - improvements: -30.20 meV to -1.74 meV
  #     hydro 4 d 6.2
  #     hydro 5 g 10.8
  #     hydro 4 p 4.9
  #     hydro 5 f 10
  #     hydro 1 s 0.8
  #  "Third tier" - improvements: -1.04 meV to -0.20 meV
  #     hydro 3 d 3.9
  #     hydro 3 d 2.7
  #     hydro 5 g 12
  #     hydro 4 p 10.4
  #     hydro 5 f 12.4
  #     hydro 2 s 1.9
  #  "Fourth tier" - improvements: -0.35 meV to -0.06 meV
  #     hydro 4 d 10.4
  #     hydro 4 p 7.2
  #     hydro 4 d 10
  #     hydro 5 g 19.2
  #     hydro 4 s 12
  
  ################################################################################
  #
  #  FHI-aims code project
  #  VB, Fritz-Haber Institut, 2009
  #
  #  Suggested "light" defaults for Cl atom (to be pasted into control.in file)
  #  Be sure to double-check any results obtained with these settings for post-processing,
  #  e.g., with the "tight" defaults and larger basis sets.
  #
  ################################################################################
    species        Cl
  #     global species definitions
      nucleus             17
      mass                35.453
  #
      l_hartree           4
  #
      cut_pot             3.5          1.5  1.0
      basis_dep_cutoff    1e-4
  #
      radial_base         45 5.0
      radial_multiplier   1
      angular_grids       specified
        division   0.4412  110
        division   0.5489  194
        division   0.6734  302
  #      division   0.7794  434
  #      division   0.9402  590
  #      division   1.0779  770
  #      division   1.1792  974
  #      outer_grid  974
        outer_grid  302
  ################################################################################
  #
  #  Definition of "minimal" basis
  #
  ################################################################################
  #     valence basis states
      valence      3  s   2.
      valence      3  p   5.
  #     ion occupancy
      ion_occ      3  s   1.
      ion_occ      3  p   4.
  ################################################################################
  #
  #  Suggested additional basis functions. For production calculations,
  #  uncomment them one after another (the most important basis functions are
  #  listed first).
  #
  #  Constructed for dimers: 1.65 A, 2.0 A, 2.5 A, 3.25 A, 4.0 A
  #
  ################################################################################
  #  "First tier" - improvements: -429.57 meV to -15.03 meV
       ionic 3 d auto
       hydro 2 p 1.9
  #     hydro 4 f 7.4
       ionic 3 s auto
  #     hydro 5 g 10.4
  #  "Second tier" - improvements: -7.84 meV to -0.48 meV
  #     hydro 3 d 3.3
  #     hydro 5 f 9.8
  #     hydro 1 s 0.75
  #     hydro 5 g 11.2
  #     hydro 4 p 10.4
  #  "Third tier" - improvements: -1.00 meV to -0.12 meV
  #     hydro 4 d 12.8
  #     hydro 4 f 4.6
  #     hydro 4 d 10.8
  #     hydro 2 s 1.8
  #     hydro 3 p 3
  #  Further functions that fell out - improvements: -0.10 meV and below
  #     hydro 5 f 14.4
  #     hydro 4 s 12.8
  #     hydro 3 d 11.6
  #     hydro 4 s 4.1
  
  -----------------------------------------------------------------------
  Completed first pass over input file control.in .
  -----------------------------------------------------------------------
  
  
  -----------------------------------------------------------------------
  Parsing geometry.in (first pass over file, find array dimensions only).
  The contents of geometry.in will be repeated verbatim below
  unless switched off by setting 'verbatim_writeout .false.' .
  in the first line of geometry.in .
  -----------------------------------------------------------------------
  
  #=======================================================
  # FHI-aims file: geometry.in.6
  # Created using the Atomic Simulation Environment (ASE)
  # Sat Jul 23 22:56:02 2022
  #=======================================================
  lattice_vector 9.8979997634999997 0.0000000000000000 0.0000000000000000
  lattice_vector 0.0000000000000000 9.8979997634999997 0.0000000000000000
  lattice_vector 0.0000000000000000 0.0000000000000000 9.8979997634999997
  atom 3.0453537599999998 0.2791273200000000 6.8849498400000000 Li
  atom 3.9069139200000000 0.0416604200000000 2.6076385499999999 Li
  atom 6.9576117699999998 3.2536212600000001 0.4484130300000000 Li
  atom 6.6413422899999999 6.7805993700000000 -0.1536573700000000 Li
  atom 0.3717296300000000 6.5010516400000000 2.9107832600000001 Li
  atom 9.4110173600000007 6.5562063799999999 7.0360288000000004 Li
  atom 0.0965125600000000 2.7142226699999998 6.3947666999999999 Li
  atom 3.5284307199999998 6.6196115999999998 3.8116290899999998 Li
  atom 6.6390034699999996 8.1213703899999992 4.9636087199999999 Li
  atom 5.3098755799999999 2.3555834899999999 2.6658246999999999 Li
  atom 1.5401501099999999 8.8216152200000000 3.5101414499999999 Li
  atom 0.5583921100000000 2.3074099800000001 2.2685523600000002 Li
  atom 7.6309839400000001 -0.1910910100000000 1.5512155599999999 Li
  atom 8.3219445800000003 10.0861407700000001 7.9398798700000004 Li
  atom 2.4455083300000000 8.6961384800000001 7.5012632600000000 Li
  atom 5.7593113899999997 5.8957913800000004 7.5664041500000003 Li
  atom 8.3047813999999995 5.3561709899999999 4.3318406600000001 Li
  atom 0.0260533500000000 8.9238302800000007 2.3452401300000001 Li
  atom 1.5190292299999999 2.0584445400000000 9.5714862299999997 Li
  atom 4.7918146500000001 7.2680601300000003 4.9176051200000002 Li
  atom 0.0081609400000000 -0.0117910800000000 4.9183067100000004 P
  atom 4.8929847700000000 0.0604535500000000 -0.1340192100000000 P
  atom 0.0510094800000000 4.9893822999999999 0.0778722500000000 P
  atom 5.0572051599999996 4.8714473600000003 4.8181855200000001 P
  atom 1.1506171900000000 8.6423898000000001 6.1007710299999998 S
  atom 8.5965499100000002 1.1064078399999999 6.0562356599999996 S
  atom 8.7270295299999994 8.6827929800000003 3.7217594799999998 S
  atom 1.2663170600000000 1.2297058400000000 3.8762679599999998 S
  atom 6.0772003500000000 1.2928268100000000 8.5947161600000008 S
  atom 6.0123846099999998 8.7370763300000007 1.0684056000000000 S
  atom 3.6762799500000001 8.7763089999999995 8.5710134799999995 S
  atom 3.6969616500000000 1.2906963800000000 0.9734614900000000 S
  atom 8.7234750499999993 5.9582073900000001 1.4445069200000000 S
  atom 1.0654511799999999 6.3104565099999999 8.8024172800000002 S
  atom 8.7537265499999997 3.7811655000000002 8.8385333399999997 S
  atom 1.4207658599999999 3.8797812999999999 1.1628748400000000 S
  atom 6.0818337600000003 6.2506537399999997 3.7186957999999999 S
  atom 6.3250500100000000 3.7921890700000001 6.0115254000000000 S
  atom 4.0858136099999998 3.6118473199999999 3.5268009100000000 S
  atom 3.6289256399999998 5.7602658299999998 6.0479883399999999 S
  atom 2.3668205900000001 2.4936749499999999 7.2540696999999996 Cl
  atom 7.3134333600000003 7.5393838000000004 7.4843314599999999 Cl
  atom 4.7367071799999998 -0.2327336200000000 4.8929528400000004 Cl
  atom 5.1615237900000004 5.0305814000000000 -0.2583427600000000 Cl
  atom -0.0497286300000000 0.2602403500000000 0.1663799400000000 Cl
  atom 0.0300422700000000 4.9570735299999997 5.0233017999999996 Cl
  atom 7.5963873000000000 2.3519079600000001 2.4720184900000000 Cl
  atom 2.4716053100000002 7.5248888599999999 2.4620893100000001 Cl
  
  -----------------------------------------------------------------------
  Completed first pass over input file geometry.in .
  -----------------------------------------------------------------------
  

  Basic array size parameters:
  | Number of species                 :        4
  | Number of atoms                   :       48
  | Number of lattice vectors         :        3
  | Max. basis fn. angular momentum   :        2
  | Max. atomic/ionic basis occupied n:        3
  | Max. number of basis fn. types    :        3
  | Max. radial fns per species/type  :        5
  | Max. logarithmic grid size        :     1362
  | Max. radial integration grid size :       45
  | Max. angular integration grid size:      302
  | Max. angular grid division number :        8
  | Radial grid for Hartree potential :     1362
  | Number of spin channels           :        1

------------------------------------------------------------
          Reading file control.in.
------------------------------------------------------------
  XC: Using PBE gradient-corrected functionals.
  Convergence accuracy of total energy:  0.1000E-05
  Convergence accuracy of sum of eigenvalues:  0.1000E-02
  Convergence accuracy of self-consistent charge density:  0.1000E-05
  Convergence accuracy of forces:  0.1000E-03
  Friction is calculated at temperature of   0.3000E+03 K
  Found k-point grid:         3         3         3
 
  Reading configuration options for species Li                  .
  | Found nuclear charge :   3.0000
  | Found atomic mass :    6.94100000000000      amu
  | Found l_max for Hartree potential  :   4
  | Found cutoff potl. onset [A], width [A], scale factor :    3.50000    1.50000    1.00000
  | Threshold for basis-dependent cutoff potential is   0.100000E-03
  | Found data for basic radial integration grid :    29 points, outermost radius =    5.000 A
  | Found multiplier for basic radial grid :   1
  | Found angular grid specification: user-specified.
  | Specified grid contains     4 separate shells.
  | Check grid settings after all constraints further below.
  | Found free-atom valence shell :  2 s   1.000
  | Found free-ion valence shell :  1 s   2.000
  | Found hydrogenic basis function :  2 p   1.600
  | Found hydrogenic basis function :  2 s   2.000
  | Found hydrogenic basis function :  3 d   2.600
  Species Li                  : Missing cutoff potential type.
  Defaulting to exp(1/x)/(1-x)^2 type cutoff potential.
  Species Li: No 'logarithmic' tag. Using default grid for free atom:
  | Default logarithmic grid data [bohr] : 0.1000E-03 0.1000E+03 0.1012E+01
  Species Li: On-site basis accuracy parameter (for Gram-Schmidt orthonormalisation) not specified.
  Using default value basis_acc =  0.1000000E-03.
  Species Li                  : Using default innermost maximum threshold i_radial=  2 for radial functions.
  Species Li                  : Default cutoff onset for free atom density etc. : 0.35000000E+01 AA.
  Species Li                  : Basic radial grid will be enhanced according to radial_multiplier =   1, to contain    29 grid points.
 
  Reading configuration options for species P                   .
  | Found nuclear charge :  15.0000
  | Found atomic mass :    30.9737620000000      amu
  | Found l_max for Hartree potential  :   4
  | Found cutoff potl. onset [A], width [A], scale factor :    3.50000    1.50000    1.00000
  | Threshold for basis-dependent cutoff potential is   0.100000E-03
  | Found data for basic radial integration grid :    43 points, outermost radius =    5.000 A
  | Found multiplier for basic radial grid :   1
  | Found angular grid specification: user-specified.
  | Specified grid contains     5 separate shells.
  | Check grid settings after all constraints further below.
  | Found free-atom valence shell :  3 s   2.000
  | Found free-atom valence shell :  3 p   3.000
  | Found free-ion valence shell :  3 s   1.000
  | Found free-ion valence shell :  3 p   2.000
  | Found ionic basis function :  3 d , default cutoff radius.
  | Found ionic basis function :  3 p , default cutoff radius.
  | Found ionic basis function :  3 s , default cutoff radius.
  Species P                   : Missing cutoff potential type.
  Defaulting to exp(1/x)/(1-x)^2 type cutoff potential.
  Species P : No 'logarithmic' tag. Using default grid for free atom:
  | Default logarithmic grid data [bohr] : 0.1000E-03 0.1000E+03 0.1012E+01
  | Will include ionic basis functions of  2.0-fold positive P                    ion.
  Species P : On-site basis accuracy parameter (for Gram-Schmidt orthonormalisation) not specified.
  Using default value basis_acc =  0.1000000E-03.
  Species P                   : Using default innermost maximum threshold i_radial=  2 for radial functions.
  Species P                   : Default cutoff onset for free atom density etc. : 0.35000000E+01 AA.
  Species P                   : Basic radial grid will be enhanced according to radial_multiplier =   1, to contain    43 grid points.
 
  Reading configuration options for species S                   .
  | Found nuclear charge :  16.0000
  | Found atomic mass :    32.0650000000000      amu
  | Found l_max for Hartree potential  :   4
  | Found cutoff potl. onset [A], width [A], scale factor :    3.50000    1.50000    1.00000
  | Threshold for basis-dependent cutoff potential is   0.100000E-03
  | Found data for basic radial integration grid :    44 points, outermost radius =    5.000 A
  | Found multiplier for basic radial grid :   1
  | Found angular grid specification: user-specified.
  | Specified grid contains     4 separate shells.
  | Check grid settings after all constraints further below.
  | Found free-atom valence shell :  3 s   2.000
  | Found free-atom valence shell :  3 p   4.000
  | Found free-ion valence shell :  3 s   1.000
  | Found free-ion valence shell :  3 p   3.000
  | Found ionic basis function :  3 d , default cutoff radius.
  | Found hydrogenic basis function :  2 p   1.800
  | Found ionic basis function :  3 s , default cutoff radius.
  Species S                   : Missing cutoff potential type.
  Defaulting to exp(1/x)/(1-x)^2 type cutoff potential.
  Species S : No 'logarithmic' tag. Using default grid for free atom:
  | Default logarithmic grid data [bohr] : 0.1000E-03 0.1000E+03 0.1012E+01
  | Will include ionic basis functions of  2.0-fold positive S                    ion.
  Species S : On-site basis accuracy parameter (for Gram-Schmidt orthonormalisation) not specified.
  Using default value basis_acc =  0.1000000E-03.
  Species S                   : Using default innermost maximum threshold i_radial=  2 for radial functions.
  Species S                   : Default cutoff onset for free atom density etc. : 0.35000000E+01 AA.
  Species S                   : Basic radial grid will be enhanced according to radial_multiplier =   1, to contain    44 grid points.
 
  Reading configuration options for species Cl                  .
  | Found nuclear charge :  17.0000
  | Found atomic mass :    35.4530000000000      amu
  | Found l_max for Hartree potential  :   4
  | Found cutoff potl. onset [A], width [A], scale factor :    3.50000    1.50000    1.00000
  | Threshold for basis-dependent cutoff potential is   0.100000E-03
  | Found data for basic radial integration grid :    45 points, outermost radius =    5.000 A
  | Found multiplier for basic radial grid :   1
  | Found angular grid specification: user-specified.
  | Specified grid contains     4 separate shells.
  | Check grid settings after all constraints further below.
  | Found free-atom valence shell :  3 s   2.000
  | Found free-atom valence shell :  3 p   5.000
  | Found free-ion valence shell :  3 s   1.000
  | Found free-ion valence shell :  3 p   4.000
  | Found ionic basis function :  3 d , default cutoff radius.
  | Found hydrogenic basis function :  2 p   1.900
  | Found ionic basis function :  3 s , default cutoff radius.
  Species Cl                  : Missing cutoff potential type.
  Defaulting to exp(1/x)/(1-x)^2 type cutoff potential.
  Species Cl: No 'logarithmic' tag. Using default grid for free atom:
  | Default logarithmic grid data [bohr] : 0.1000E-03 0.1000E+03 0.1012E+01
  | Will include ionic basis functions of  2.0-fold positive Cl                   ion.
  Species Cl: On-site basis accuracy parameter (for Gram-Schmidt orthonormalisation) not specified.
  Using default value basis_acc =  0.1000000E-03.
  Species Cl                  : Using default innermost maximum threshold i_radial=  2 for radial functions.
  Species Cl                  : Default cutoff onset for free atom density etc. : 0.35000000E+01 AA.
  Species Cl                  : Basic radial grid will be enhanced according to radial_multiplier =   1, to contain    45 grid points.
 
  Finished reading input file 'control.in'. Consistency checks are next.
 
  MPI_IN_PLACE appears to work with this MPI implementation.
  | Keeping use_mpi_in_place .true. (see manual).
  Target number of points in a grid batch is not set. Defaulting to  100
  Method for grid partitioning is not set. Defaulting to parallel hash+maxmin partitioning.
  Batch size limit is not set. Defaulting to    200
  By default, will store active basis functions for each batch.
  If in need of memory, prune_basis_once .false. can be used to disable this option.
  communication_type for Hartree potential was not specified.
  Defaulting to calc_hartree .
  Defaulting to Pulay charge density mixer.
  Pulay mixer: Number of relevant iterations not set.
  Defaulting to    8 iterations.
  Pulay mixer: Number of initial linear mixing iterations not set.
  Defaulting to    0 iterations.
  Work space size for distributed Hartree potential not set.
  Defaulting to   0.200000E+03 MB.
  Mixing parameter for charge density mixing has not been set.
  Using default: charge_mix_param =     0.0500.
  The mixing parameter will be adjusted in iteration number     2 of the first full s.c.f. cycle only.
  Algorithm-dependent basis array size parameters:
  | n_max_pulay                         :        8
  Maximum number of self-consistency iterations not provided.
  Presetting  1000 iterations.
  Presetting      1001 iterations before the initial mixing cycle
  is restarted anyway using the sc_init_iter criterion / keyword.
  Presetting a factor      1.000 between actual scf density residual
  and density convergence criterion sc_accuracy_rho below which sc_init_iter
  takes no effect.
  Geometry relaxation not requested: no relaxation will be performed.
  Handling of forces: Unphysical translation and rotation will be removed from forces.
  No accuracy limit for integral partition fn. given. Defaulting to  0.1000E-14.
  No threshold value for u(r) in integrations given. Defaulting to  0.1000E-05.
  No occupation type (smearing scheme) given. Defaulting to Gaussian broadening, width =  0.1000E-01 eV.
  The width will be adjusted in iteration number     2 of the first full s.c.f. cycle only.
  S.C.F. convergence parameters will be adjusted in iteration number     2 of the first full s.c.f. cycle only.
  No accuracy for occupation numbers given. Defaulting to  0.1000E-12.
  No threshold value for occupation numbers given. Defaulting to  0.0000E+00.
  No accuracy for fermi level given. Defaulting to  0.1000E-19.
  Maximum # of iterations to find E_F not set. Defaulting to  200.
  Preferred method for the eigenvalue solver ('KS_method') not specified in 'control.in'.
  Defaulting to serial version, 'lapack_fast', since more k-points than CPUs available.
  Will not use alltoall communication since running on < 1024 CPUs.
  Threshold for basis singularities not set.
  Default threshold for basis singularities:  0.1000E-04
  partition_type (choice of integration weights) for integrals was not specified.
  | Using a version of the partition function of Stratmann and coworkers ('stratmann_smoother').
  | At each grid point, the set of atoms used to build the partition table is smoothly restricted to
  | only those atoms whose free-atom density would be non-zero at that grid point.
  Partitioning for Hartree potential was not defined. Using partition_type for integrals.
  | Adjusted default value of keyword multip_moments_threshold to:       0.10000000E-11
  | This value may affect high angular momentum components of the Hartree potential in periodic systems.
  Spin handling was not defined in control.in. Defaulting to unpolarized case.
  Angular momentum expansion for Kerker preconditioner not set explicitly.
  | Using default value of   0
  No explicit requirement for turning off preconditioner.
  | By default, it will be turned off when the charge convergence reaches
  | sc_accuracy_rho  =   0.100000E-05
  | sc_accuracy_eev  =   0.100000E-02
  | sc_accuracy_etot =   0.100000E-05
  No special mixing parameter while Kerker preconditioner is on.
  Using default: charge_mix_param =     0.0500.
  No q(lm)/r^(l+1) cutoff set for long-range Hartree potential.
  | Using default value of  0.100000E-09 .
  | Verify using the multipole_threshold keyword.
  Defaulting to new monopole extrapolation.
  Density update method: automatic selection selected.
  Using density matrix based charge density update.
  Using density matrix based charge density update.
  Using packed matrix style: index .
  Defaulting to use time-reversal symmetry for k-point grid.
------------------------------------------------------------


------------------------------------------------------------
          Reading geometry description geometry.in.
------------------------------------------------------------
 * Warning! You did not set the 'relativistic' flag in input file 'control.in'.
 * Since you are not attempting to treat any elements beyond Ca(Z=20), FHI-aims
 * will default to 'relativistic none'.
 * You must ensure that this is really what you want!!
 * For example, DO NOT compute total-energy differences between results from
 * different settings of the 'relativistic' flag.
  Input structure read successfully.
  The structure contains       48 atoms,  and a total of        512.000 electrons.

  Input geometry:
  | Unit cell:
  |        9.89799976        0.00000000        0.00000000
  |        0.00000000        9.89799976        0.00000000
  |        0.00000000        0.00000000        9.89799976
  | Atomic structure:
  |       Atom                x [A]            y [A]            z [A]
  |    1: Species Li            3.04535376        0.27912732        6.88494984
  |    2: Species Li            3.90691392        0.04166042        2.60763855
  |    3: Species Li            6.95761177        3.25362126        0.44841303
  |    4: Species Li            6.64134229        6.78059937       -0.15365737
  |    5: Species Li            0.37172963        6.50105164        2.91078326
  |    6: Species Li            9.41101736        6.55620638        7.03602880
  |    7: Species Li            0.09651256        2.71422267        6.39476670
  |    8: Species Li            3.52843072        6.61961160        3.81162909
  |    9: Species Li            6.63900347        8.12137039        4.96360872
  |   10: Species Li            5.30987558        2.35558349        2.66582470
  |   11: Species Li            1.54015011        8.82161522        3.51014145
  |   12: Species Li            0.55839211        2.30740998        2.26855236
  |   13: Species Li            7.63098394       -0.19109101        1.55121556
  |   14: Species Li            8.32194458       10.08614077        7.93987987
  |   15: Species Li            2.44550833        8.69613848        7.50126326
  |   16: Species Li            5.75931139        5.89579138        7.56640415
  |   17: Species Li            8.30478140        5.35617099        4.33184066
  |   18: Species Li            0.02605335        8.92383028        2.34524013
  |   19: Species Li            1.51902923        2.05844454        9.57148623
  |   20: Species Li            4.79181465        7.26806013        4.91760512
  |   21: Species P             0.00816094       -0.01179108        4.91830671
  |   22: Species P             4.89298477        0.06045355       -0.13401921
  |   23: Species P             0.05100948        4.98938230        0.07787225
  |   24: Species P             5.05720516        4.87144736        4.81818552
  |   25: Species S             1.15061719        8.64238980        6.10077103
  |   26: Species S             8.59654991        1.10640784        6.05623566
  |   27: Species S             8.72702953        8.68279298        3.72175948
  |   28: Species S             1.26631706        1.22970584        3.87626796
  |   29: Species S             6.07720035        1.29282681        8.59471616
  |   30: Species S             6.01238461        8.73707633        1.06840560
  |   31: Species S             3.67627995        8.77630900        8.57101348
  |   32: Species S             3.69696165        1.29069638        0.97346149
  |   33: Species S             8.72347505        5.95820739        1.44450692
  |   34: Species S             1.06545118        6.31045651        8.80241728
  |   35: Species S             8.75372655        3.78116550        8.83853334
  |   36: Species S             1.42076586        3.87978130        1.16287484
  |   37: Species S             6.08183376        6.25065374        3.71869580
  |   38: Species S             6.32505001        3.79218907        6.01152540
  |   39: Species S             4.08581361        3.61184732        3.52680091
  |   40: Species S             3.62892564        5.76026583        6.04798834
  |   41: Species Cl            2.36682059        2.49367495        7.25406970
  |   42: Species Cl            7.31343336        7.53938380        7.48433146
  |   43: Species Cl            4.73670718       -0.23273362        4.89295284
  |   44: Species Cl            5.16152379        5.03058140       -0.25834276
  |   45: Species Cl           -0.04972863        0.26024035        0.16637994
  |   46: Species Cl            0.03004227        4.95707353        5.02330180
  |   47: Species Cl            7.59638730        2.35190796        2.47201849
  |   48: Species Cl            2.47160531        7.52488886        2.46208931

  Lattice parameters for 3D lattice (in Angstroms) :     9.898000    9.898000    9.898000
  Angle(s) between unit vectors (in degrees)      :    90.000000   90.000000   90.000000

  |

  | The smallest distance between any two atoms is         1.63266397 AA.
  |
  | The first atom of this pair is atom number                     15 .
  | The second atom of this pair is atom number                    31 .
  | Wigner-Seitz cell of the first atom image           0     0     0 .
  | (The Wigner-Seitz cell of the second atom is 0 0 0  by definition.)

  Symmetry information by spglib:
  | Precision set to  0.1E-04
  | Number of Operations  : 1
  | Space group           : 1
  | International         : P1
  | Schoenflies           : C1^1

  Quantities derived from the lattice vectors:
  | Reciprocal lattice vector 1:  0.634793  0.000000  0.000000
  | Reciprocal lattice vector 2:  0.000000  0.634793  0.000000
  | Reciprocal lattice vector 3:  0.000000  0.000000  0.634793
  | Unit cell volume                               :   0.969711E+03  A^3

  Range separation radius for Ewald summation (hartree_convergence_parameter):      3.90166475 bohr.

  Fractional coordinates:
                         L1                L2                L3
       atom_frac         0.30767365        0.02820038        0.69559002  Li
       atom_frac         0.39471752        0.00420897        0.26345106  Li
       atom_frac         0.70293109        0.32871503        0.04530340  Li
       atom_frac         0.67097822        0.68504744       -0.01552408  Li
       atom_frac         0.03755604        0.65680459        0.29407793  Li
       atom_frac         0.95079992        0.66237690        0.71085360  Li
       atom_frac         0.00975071        0.27421931        0.64606656  Li
       atom_frac         0.35647917        0.66878276        0.38509084  Li
       atom_frac         0.67074193        0.82050622        0.50147594  Li
       atom_frac         0.53645946        0.23798581        0.26932964  Li
       atom_frac         0.15560216        0.89125232        0.35463139  Li
       atom_frac         0.05641464        0.23311882        0.22919301  Li
       atom_frac         0.77096223       -0.01930602        0.15672010  Li
       atom_frac         0.84077034        1.01900798        0.80217014  Li
       atom_frac         0.24707096        0.87857534        0.75785648  Li
       atom_frac         0.58186619        0.59565483        0.76443770  Li
       atom_frac         0.83903633        0.54113671        0.43764809  Li
       atom_frac         0.00263218        0.90157916        0.23694081  Li
       atom_frac         0.15346830        0.20796571        0.96701217  Li
       atom_frac         0.48411950        0.73429585        0.49682817  Li
       atom_frac         0.00082450       -0.00119126        0.49689905  P
       atom_frac         0.49434076        0.00610765       -0.01354003  P
       atom_frac         0.00515351        0.50407986        0.00786747  P
       atom_frac         0.51093203        0.49216483        0.48678376  P
       atom_frac         0.11624745        0.87314508        0.61636403  S
       atom_frac         0.86851385        0.11178095        0.61186460  S
       atom_frac         0.88169628        0.87722703        0.37601127  S
       atom_frac         0.12793666        0.12423781        0.39162134  S
       atom_frac         0.61398267        0.13061496        0.86832859  S
       atom_frac         0.60743431        0.88271131        0.10794157  S
       atom_frac         0.37141645        0.88667501        0.86593389  S
       atom_frac         0.37350593        0.13039972        0.09834931  S
       atom_frac         0.88133716        0.60196075        0.14593928  S
       atom_frac         0.10764308        0.63754866        0.88931274  S
       atom_frac         0.88439349        0.38201309        0.89296156  S
       atom_frac         0.14354070        0.39197630        0.11748584  S
       atom_frac         0.61445079        0.63150676        0.37570175  S
       atom_frac         0.63902305        0.38312681        0.60734750  S
       atom_frac         0.41279185        0.36490679        0.35631451  S
       atom_frac         0.36663222        0.58196262        0.61103137  S
       atom_frac         0.23912110        0.25193726        0.73288239  Cl
       atom_frac         0.73887993        0.76170782        0.75614585  Cl
       atom_frac         0.47855196       -0.02351320        0.49433754  Cl
       atom_frac         0.52147140        0.50824222       -0.02610050  Cl
       atom_frac        -0.00502411        0.02629222        0.01680945  Cl
       atom_frac         0.00303519        0.50081568        0.50750676  Cl
       atom_frac         0.76746691        0.23761447        0.24974930  Cl
       atom_frac         0.24970755        0.76024339        0.24874615  Cl

  Number of empty states per atom not set in control.in - providing a guess from actual geometry.
  | Total number of empty states used during s.c.f. cycle:      114
  If you use a very high smearing, use empty_states (per atom!) in control.in to increase this value.

  Structure-dependent array size parameters: 
  | Maximum number of distinct radial functions  :       29
  | Maximum number of basis functions            :      724
  | Number of Kohn-Sham states (occupied + empty):      370
------------------------------------------------------------

------------------------------------------------------------
          Preparing all fixed parts of the calculation.
------------------------------------------------------------
  Determining machine precision:
    2.225073858507201E-308
  Setting up grids for atomic and cluster calculations.

  Creating wave function, potential, and density for free atoms.

  Species: Li

  List of occupied orbitals and eigenvalues:
    n    l              occ      energy [Ha]    energy [eV]
    1    0           2.0000        -1.876896       -51.0729
    2    0           1.0000        -0.084105        -2.2886


  Species: P

  List of occupied orbitals and eigenvalues:
    n    l              occ      energy [Ha]    energy [eV]
    1    0           2.0000       -76.351489     -2077.6297
    2    0           2.0000        -6.353717      -172.8934
    3    0           2.0000        -0.506059       -13.7706
    2    1           6.0000        -4.569386      -124.3393
    3    1           3.0000        -0.198107        -5.3908


  Species: S

  List of occupied orbitals and eigenvalues:
    n    l              occ      energy [Ha]    energy [eV]
    1    0           2.0000       -88.105825     -2397.4815
    2    0           2.0000        -7.730144      -210.3479
    3    0           2.0000        -0.627748       -17.0819
    2    1           6.0000        -5.747971      -156.4103
    3    1           4.0000        -0.255786        -6.9603


  Species: Cl

  List of occupied orbitals and eigenvalues:
    n    l              occ      energy [Ha]    energy [eV]
    1    0           2.0000      -100.709620     -2740.4482
    2    0           2.0000        -9.221874      -250.9399
    3    0           2.0000        -0.753366       -20.5001
    2    1           6.0000        -7.038743      -191.5339
    3    1           5.0000        -0.315359        -8.5813

  Creating fixed part of basis set: Ionic, confined, hydrogenic.
 
  Li                   hydrogenic:
 
  List of hydrogenic basis orbitals: 
    n    l      effective z      eigenvalue [eV]  inner max. [A]     outer max. [A]     outer radius [A]   
    2    1         1.600000        -8.6069           1.303334           1.303334           4.591005
    2    0         2.000000       -13.5631           0.203259           1.385485           4.591005
    3    2         2.600000        -9.9241           1.769240           1.769240           4.591005
 
 
  P                    ion:

  List of free ionic orbitals and eigenvalues:
    n    l      energy [Ha]    energy [eV]
    1    0       -77.297133     -2103.3620
    2    0        -7.273914      -197.9333
    3    0        -1.267536       -34.4914
    2    1        -5.491316      -149.4263
    3    1        -0.913470       -24.8568


  List of ionic basis orbitals and eigenvalues:
    n    l      energy [Ha]    energy [eV]    outer radius [A]
    3    2        -0.457308       -12.4440       4.554583
    3    1        -0.913443       -24.8560       4.337222
    3    0        -1.267519       -34.4910       3.885335

 
  S                    ion:

  List of free ionic orbitals and eigenvalues:
    n    l      energy [Ha]    energy [eV]
    1    0       -89.127201     -2425.2745
    2    0        -8.724378      -237.4024
    3    0        -1.464668       -39.8556
    2    1        -6.744348      -183.5230
    3    1        -1.048520       -28.5317


  List of ionic basis orbitals and eigenvalues:
    n    l      energy [Ha]    energy [eV]    outer radius [A]
    3    2        -0.496135       -13.5005       4.539062
    3    0        -1.464653       -39.8552       3.642502

 
  S                    hydrogenic:
 
  List of hydrogenic basis orbitals: 
    n    l      effective z      eigenvalue [eV]  inner max. [A]     outer max. [A]     outer radius [A]   
    2    1         1.800000       -10.9749           1.168531           1.168531           4.594893
 
 
  Cl                   ion:

  List of free ionic orbitals and eigenvalues:
    n    l      energy [Ha]    energy [eV]
    1    0      -101.807232     -2770.3157
    2    0       -10.290876      -280.0290
    3    0        -1.664625       -45.2967
    2    1        -8.110237      -220.6908
    3    1        -1.183915       -32.2160


  List of ionic basis orbitals and eigenvalues:
    n    l      energy [Ha]    energy [eV]    outer radius [A]
    3    2        -0.529186       -14.3999       4.541334
    3    0        -1.664610       -45.2963       3.428237

 
  Cl                   hydrogenic:
 
  List of hydrogenic basis orbitals: 
    n    l      effective z      eigenvalue [eV]  inner max. [A]     outer max. [A]     outer radius [A]   
    2    1         1.900000       -12.2492           1.113321           1.113321           4.597192
 

  Adding cutoff potential to free-atom effective potential.
  Creating atomic-like basis functions for current effective potential.

  Species Li                  :

  List of atomic basis orbitals and eigenvalues:
    n    l      energy [Ha]    energy [eV]    outer radius [A]
    1    0        -1.876896       -51.0729       4.062706
    2    0        -0.084105        -2.2886       4.591005


  Species P                   :

  List of atomic basis orbitals and eigenvalues:
    n    l      energy [Ha]    energy [eV]    outer radius [A]
    1    0       -76.351489     -2077.6297       0.736837
    2    0        -6.353717      -172.8934       2.532824
    3    0        -0.506059       -13.7706       4.499242
    2    1        -4.569386      -124.3393       2.862183
    3    1        -0.198107        -5.3908       4.554583


  Species S                   :

  List of atomic basis orbitals and eigenvalues:
    n    l      energy [Ha]    energy [eV]    outer radius [A]
    1    0       -88.105825     -2397.4815       0.682391
    2    0        -7.730144      -210.3479       2.317169
    3    0        -0.627748       -17.0819       4.483910
    2    1        -5.747971      -156.4103       2.555240
    3    1        -0.255786        -6.9603       4.539062


  Species Cl                  :

  List of atomic basis orbitals and eigenvalues:
    n    l      energy [Ha]    energy [eV]    outer radius [A]
    1    0      -100.709620     -2740.4482       0.642251
    2    0        -9.221874      -250.9399       2.128190
    3    0        -0.753366       -20.5001       4.431645
    2    1        -7.038743      -191.5339       2.346844
    3    1        -0.315359        -8.5813       4.541334

  Assembling full basis from fixed parts.
  | Species Li :   atomic orbital   1 s accepted.
  | Species Li :   atomic orbital   2 s accepted.
  | Species Li :    hydro orbital   2 s accepted.
  | Species Li :    hydro orbital   2 p accepted.
  | Species Li :    hydro orbital   3 d accepted.
  | Species P :   atomic orbital   1 s accepted.
  | Species P :   atomic orbital   2 s accepted.
  | Species P :    ionic orbital   3 s accepted.
  | Species P :   atomic orbital   3 s accepted.
  | Species P :   atomic orbital   2 p accepted.
  | Species P :    ionic orbital   3 p accepted.
  | Species P :   atomic orbital   3 p accepted.
  | Species P :    ionic orbital   3 d accepted.
  | Species S :   atomic orbital   1 s accepted.
  | Species S :   atomic orbital   2 s accepted.
  | Species S :    ionic orbital   3 s accepted.
  | Species S :   atomic orbital   3 s accepted.
  | Species S :   atomic orbital   2 p accepted.
  | Species S :   atomic orbital   3 p accepted.
  | Species S :    hydro orbital   2 p accepted.
  | Species S :    ionic orbital   3 d accepted.
  | Species Cl :   atomic orbital   1 s accepted.
  | Species Cl :   atomic orbital   2 s accepted.
  | Species Cl :    ionic orbital   3 s accepted.
  | Species Cl :   atomic orbital   3 s accepted.
  | Species Cl :   atomic orbital   2 p accepted.
  | Species Cl :   atomic orbital   3 p accepted.
  | Species Cl :    hydro orbital   2 p accepted.
  | Species Cl :    ionic orbital   3 d accepted.
 
  Basis size parameters after reduction:
  | Total number of radial functions:       29
  | Total number of basis functions :      724
 
  Per-task memory consumption for arrays in subroutine allocate_ext:
  |           7.605768MB.
  Testing on-site integration grid accuracy.
  |  Species  Function  <phi|h_atom|phi> (log., in eV)  <phi|h_atom|phi> (rad., in eV)
           1        1                -51.0729407432                -51.0729328795
           1        2                 -2.3261068990                 -2.3227046518
           1        3                 17.1966930198                 17.2358027191 ***
           1        4                  0.3867256281                  0.3982841734
           1        5                  6.2743141416                  6.2817896417
           2        6              -2077.6297159538              -2077.6288551184
           2        7               -172.8934457906               -172.8934403880
           2        8                -13.4653967551                -13.4655200798
           2        9                  6.4162845277                  6.4013396720
           2       10               -124.3393201040               -124.3393200061
           2       11                 -4.7560266034                 -4.7560495157
           2       12                  6.5873401476                  6.4958904717 ***
           2       13                  5.2911719464                  5.2826493609
           3       14              -2397.4814915323              -2397.4804563634
           3       15               -210.3479335736               -210.3479265952
           3       16                -16.8079362322                -16.8079092816
           3       17                  7.5772439785                  7.5675998324
           3       18               -156.4102581151               -156.4102580951
           3       19                 -6.9617737483                 -6.9640288036
           3       20                  7.5696988470                  7.5151244831 ***
           3       21                  6.0973034823                  6.0928113248
           4       22              -2740.4481953768              -2740.4469735573
           4       23               -250.9399497423               -250.9399403187
           4       24                -20.2462734235                -20.2462512680
           4       25                  8.9460051782                  8.9510436705
           4       26               -191.5339459398               -191.5339455009
           4       27                 -8.5819075957                 -8.5827488985
           4       28                  8.1339828089                  8.0979459360 ***
           4       29                  7.0302175114                  7.0277664253
 * Note: Onsite integrals marked "***" above are less accurate than
 * onsite_accuracy_threshold =    0.03000 eV. Usually, this is harmless.
 * When in doubt, tighten the "radial" and/or "radial_multiplier" flags to check.

  Preparing densities etc. for the partition functions (integrals / Hartree potential).

  Preparations completed.
  max(cpu_time)          :      0.412 s.
  Wall clock time (cpu1) :      0.409 s.
------------------------------------------------------------

------------------------------------------------------------
          Begin self-consistency loop: Initialization.

          Date     :  20220723, Time     :  170830.141
------------------------------------------------------------

  Initializing index lists of integration centers etc. from given atomic structure:
  Mapping all atomic coordinates to central unit cell.

  Initializing the k-points
          Using symmetry for reducing the k-points
  | k-points reduced from:       27 to       14
  | Number of k-points                             :        14
  The eigenvectors in the calculations are COMPLEX.
  | K-points in task   0:         0
  | K-points in task   1:         1
  | K-points in task   2:         1
  | K-points in task   3:         1
  | K-points in task   4:         1
  | K-points in task   5:         1
  | K-points in task   6:         1
  | K-points in task   7:         1
  | K-points in task   8:         1
  | K-points in task   9:         1
  | K-points in task  10:         1
  | K-points in task  11:         1
  | K-points in task  12:         1
  | K-points in task  13:         1
  | K-points in task  14:         1
  | K-points in task  15:         0
  | K-points in task  16:         0
  | K-points in task  17:         0
  | K-points in task  18:         0
  | K-points in task  19:         0
  | Number of basis functions in the Hamiltonian integrals :      3905
  | Number of basis functions in a single unit cell        :       724
  | Number of centers in hartree potential         :      1733
  | Number of centers in hartree multipole         :       925
  | Number of centers in electron density summation:       722
  | Number of centers in basis integrals           :       756
  | Number of centers in integrals                 :       340
  | Number of centers in hamiltonian               :       727
  | Consuming          6 KiB for k_phase.
  | Number of super-cells (origin) [n_cells]                     :         125
  | Number of super-cells (after PM_index) [n_cells]             :          28
  | Number of super-cells in hamiltonian [n_cells_in_hamiltonian]:          28
  | Size of matrix packed + index [n_hamiltonian_matrix_size] :      741666
  Partitioning the integration grid into batches with parallel hashing+maxmin method.
  | Number of batches:     4343
  | Maximal batch size:     170
  | Minimal batch size:      62
  | Average batch size:      82.734
  | Standard deviation of batch sizes:      15.336

  Integration load balanced across    20 MPI tasks.
  Work distribution over tasks is as follows:
  Task     0 has      17984 integration points.
  Task     1 has      17979 integration points.
  Task     2 has      17973 integration points.
  Task     3 has      17983 integration points.
  Task     4 has      17934 integration points.
  Task     5 has      17976 integration points.
  Task     6 has      17970 integration points.
  Task     7 has      17961 integration points.
  Task     8 has      17978 integration points.
  Task     9 has      17948 integration points.
  Task    10 has      17990 integration points.
  Task    11 has      17933 integration points.
  Task    12 has      17943 integration points.
  Task    13 has      17991 integration points.
  Task    14 has      18005 integration points.
  Task    15 has      17970 integration points.
  Task    16 has      17927 integration points.
  Task    17 has      17955 integration points.
  Task    18 has      17959 integration points.
  Task    19 has      17953 integration points.
  Initializing partition tables, free-atom densities, potentials, etc. across the integration grid (initialize_grid_storage).
  | initialize_grid_storage: Actual outermost partition radius vs. multipole_radius_free
  | (-- VB: in principle, multipole_radius_free should be larger, hence this output)
  | Species        1: Confinement radius =              4.999999999999999 AA, multipole_radius_free =              5.001180127821857 AA.
  | Species        1: outer_partition_radius set to              5.001180127821857 AA .
  | Species        2: Confinement radius =              4.999999999999999 AA, multipole_radius_free =              5.022530438398565 AA.
  | Species        2: outer_partition_radius set to              5.022530438398565 AA .
  | Species        3: Confinement radius =              4.999999999999999 AA, multipole_radius_free =              5.005414751018925 AA.
  | Species        3: outer_partition_radius set to              5.005414751018925 AA .
  | Species        4: Confinement radius =              4.999999999999999 AA, multipole_radius_free =              5.007919576009533 AA.
  | Species        4: outer_partition_radius set to              5.007919576009533 AA .
  | Original list of interatomic distances with         756 x        756 entries is created.
  | Net number of integration points:   359312
  | of which are non-zero points    :   323507
  | Numerical average free-atom electrostatic potential    :     -9.55338731 eV
  Renormalizing the initial density to the exact electron count on the 3D integration grid.
  | Initial density: Formal number of electrons (from input files) :     512.0000000000
  | Integrated number of electrons on 3D grid     :     511.9995491858
  | Charge integration error                      :      -0.0004508142
  | Normalization factor for density and gradient :       1.0000008805
  Obtaining max. number of non-zero basis functions in each batch (get_n_compute_maxes).
  | Maximal number of non-zero basis functions:      428 in task     0
  | Maximal number of non-zero basis functions:      430 in task     1
  | Maximal number of non-zero basis functions:      420 in task     2
  | Maximal number of non-zero basis functions:      427 in task     3
  | Maximal number of non-zero basis functions:      426 in task     4
  | Maximal number of non-zero basis functions:      452 in task     5
  | Maximal number of non-zero basis functions:      416 in task     6
  | Maximal number of non-zero basis functions:      425 in task     7
  | Maximal number of non-zero basis functions:      442 in task     8
  | Maximal number of non-zero basis functions:      436 in task     9
  | Maximal number of non-zero basis functions:      443 in task    10
  | Maximal number of non-zero basis functions:      442 in task    11
  | Maximal number of non-zero basis functions:      452 in task    12
  | Maximal number of non-zero basis functions:      430 in task    13
  | Maximal number of non-zero basis functions:      419 in task    14
  | Maximal number of non-zero basis functions:      421 in task    15
  | Maximal number of non-zero basis functions:      444 in task    16
  | Maximal number of non-zero basis functions:      441 in task    17
  | Maximal number of non-zero basis functions:      429 in task    18
  | Maximal number of non-zero basis functions:      443 in task    19
  Allocating        0.000 MB for KS_eigenvector_complex
  Integrating Hamiltonian matrix: batch-based integration.
  Time summed over all CPUs for integration: real work       12.964 s, elapsed       13.158 s
  Integrating overlap matrix.
  Time summed over all CPUs for integration: real work        8.789 s, elapsed        8.922 s
  Decreasing sparse matrix size:
   Tolerance:  9.999999824516700E-014
   Hamiltonian matrix
  | Array has   658118 nonzero elements out of   741666 elements
  | Sparsity factor is 0.113
   Overlap matrix
  | Array has   617895 nonzero elements out of   741666 elements
  | Sparsity factor is 0.167
  New size of hamiltonian matrix:      658125

  Updating Kohn-Sham eigenvalues and eigenvectors using ELSI and the ELPA eigensolver.

  Obtaining occupation numbers and chemical potential using ELSI.
  | Chemical potential (Fermi level):    -7.42293348eV
  Writing Kohn-Sham eigenvalues.
  K-point:       1 at    0.000000    0.000000    0.000000 (in units of recip. lattice)

  State    Occupation    Eigenvalue [Ha]    Eigenvalue [eV]
      1       2.00000        -100.763659        -2741.91868
      2       2.00000        -100.748153        -2741.49674
      3       2.00000        -100.733575        -2741.10004
      4       2.00000        -100.728659        -2740.96626
      5       2.00000        -100.728094        -2740.95089
      6       2.00000        -100.727760        -2740.94179
      7       2.00000        -100.725847        -2740.88974
      8       2.00000        -100.725105        -2740.86956
      9       2.00000         -88.170779        -2399.24898
     10       2.00000         -88.154215        -2398.79825
     11       2.00000         -88.148724        -2398.64883
     12       2.00000         -88.146938        -2398.60021
     13       2.00000         -88.144504        -2398.53400
     14       2.00000         -88.141063        -2398.44036
     15       2.00000         -88.139914        -2398.40909
     16       2.00000         -88.137774        -2398.35086
     17       2.00000         -88.137491        -2398.34314
     18       2.00000         -88.136028        -2398.30334
     19       2.00000         -88.133913        -2398.24581
     20       2.00000         -88.128654        -2398.10268
     21       2.00000         -88.123678        -2397.96729
     22       2.00000         -88.123289        -2397.95670
     23       2.00000         -88.120367        -2397.87718
     24       2.00000         -88.119187        -2397.84509
     25       2.00000         -76.387834        -2078.61872
     26       2.00000         -76.386312        -2078.57732
     27       2.00000         -76.378469        -2078.36389
     28       2.00000         -76.377874        -2078.34769
     29       2.00000          -9.278916         -252.49216
     30       2.00000          -9.262535         -252.04640
     31       2.00000          -9.247752         -251.64413
     32       2.00000          -9.242425         -251.49918
     33       2.00000          -9.241963         -251.48660
     34       2.00000          -9.241382         -251.47080
     35       2.00000          -9.239398         -251.41681
     36       2.00000          -9.238811         -251.40083
     37       2.00000          -7.799130         -212.22513
     38       2.00000          -7.782690         -211.77776
     39       2.00000          -7.777120         -211.62619
     40       2.00000          -7.774925         -211.56649
     41       2.00000          -7.772261         -211.49398
     42       2.00000          -7.768581         -211.39383
     43       2.00000          -7.767643         -211.36832
     44       2.00000          -7.765349         -211.30590
     45       2.00000          -7.764650         -211.28688
     46       2.00000          -7.763318         -211.25062
     47       2.00000          -7.761264         -211.19473
     48       2.00000          -7.755637         -211.04162
     49       2.00000          -7.750265         -210.89544
     50       2.00000          -7.749960         -210.88713
     51       2.00000          -7.746740         -210.79951
     52       2.00000          -7.745477         -210.76516
     53       2.00000          -7.096330         -193.10097
     54       2.00000          -7.095209         -193.07045
     55       2.00000          -7.094479         -193.05058
     56       2.00000          -7.080535         -192.67115
     57       2.00000          -7.078444         -192.61426
     58       2.00000          -7.078255         -192.60910
     59       2.00000          -7.064845         -192.24422
     60       2.00000          -7.064155         -192.22543
     61       2.00000          -7.064109         -192.22419
     62       2.00000          -7.059518         -192.09927
     63       2.00000          -7.059078         -192.08728
     64       2.00000          -7.059032         -192.08602
     65       2.00000          -7.058680         -192.07645
     66       2.00000          -7.058591         -192.07403
     67       2.00000          -7.058571         -192.07350
     68       2.00000          -7.058238         -192.06444
     69       2.00000          -7.057933         -192.05613
     70       2.00000          -7.057690         -192.04951
     71       2.00000          -7.056375         -192.01373
     72       2.00000          -7.056004         -192.00364
     73       2.00000          -7.055927         -192.00154
     74       2.00000          -7.055912         -192.00113
     75       2.00000          -7.055564         -191.99168
     76       2.00000          -7.054994         -191.97616
     77       2.00000          -6.396850         -174.06716
     78       2.00000          -6.395067         -174.01864
     79       2.00000          -6.386435         -173.78373
     80       2.00000          -6.385748         -173.76504
     81       2.00000          -5.820332         -158.37930
     82       2.00000          -5.814873         -158.23074
     83       2.00000          -5.813938         -158.20530
     84       2.00000          -5.801530         -157.86767
     85       2.00000          -5.800141         -157.82986
     86       2.00000          -5.798315         -157.78019
     87       2.00000          -5.795464         -157.70259
     88       2.00000          -5.794812         -157.68485
     89       2.00000          -5.794603         -157.67918
     90       2.00000          -5.793232         -157.64186
     91       2.00000          -5.791423         -157.59264
     92       2.00000          -5.790810         -157.57596
     93       2.00000          -5.790762         -157.57466
     94       2.00000          -5.789768         -157.54760
     95       2.00000          -5.788485         -157.51270
     96       2.00000          -5.786859         -157.46845
     97       2.00000          -5.786628         -157.46216
     98       2.00000          -5.786062         -157.44677
     99       2.00000          -5.785189         -157.42301
    100       2.00000          -5.784397         -157.40146
    101       2.00000          -5.784200         -157.39610
    102       2.00000          -5.783777         -157.38459
    103       2.00000          -5.783524         -157.37769
    104       2.00000          -5.783165         -157.36792
    105       2.00000          -5.781981         -157.33571
    106       2.00000          -5.781921         -157.33408
    107       2.00000          -5.781690         -157.32780
    108       2.00000          -5.780654         -157.29960
    109       2.00000          -5.780369         -157.29185
    110       2.00000          -5.780102         -157.28459
    111       2.00000          -5.779793         -157.27618
    112       2.00000          -5.778414         -157.23865
    113       2.00000          -5.777923         -157.22529
    114       2.00000          -5.774059         -157.12014
    115       2.00000          -5.773388         -157.10189
    116       2.00000          -5.772037         -157.06511
    117       2.00000          -5.769202         -156.98798
    118       2.00000          -5.768732         -156.97518
    119       2.00000          -5.767556         -156.94319
    120       2.00000          -5.767316         -156.93667
    121       2.00000          -5.766737         -156.92090
    122       2.00000          -5.766512         -156.91477
    123       2.00000          -5.765532         -156.88810
    124       2.00000          -5.764387         -156.85695
    125       2.00000          -5.763855         -156.84247
    126       2.00000          -5.763623         -156.83615
    127       2.00000          -5.762540         -156.80669
    128       2.00000          -5.762297         -156.80008
    129       2.00000          -4.612758         -125.51953
    130       2.00000          -4.611802         -125.49351
    131       2.00000          -4.611428         -125.48333
    132       2.00000          -4.611040         -125.47278
    133       2.00000          -4.609951         -125.44315
    134       2.00000          -4.609715         -125.43672
    135       2.00000          -4.601838         -125.22237
    136       2.00000          -4.601716         -125.21907
    137       2.00000          -4.601483         -125.21271
    138       2.00000          -4.601199         -125.20499
    139       2.00000          -4.601056         -125.20110
    140       2.00000          -4.600746         -125.19267
    141       2.00000          -1.985628          -54.03168
    142       2.00000          -1.955722          -53.21790
    143       2.00000          -1.940718          -52.80963
    144       2.00000          -1.930136          -52.52166
    145       2.00000          -1.929080          -52.49295
    146       2.00000          -1.926938          -52.43464
    147       2.00000          -1.904448          -51.82268
    148       2.00000          -1.901563          -51.74417
    149       2.00000          -1.899990          -51.70137
    150       2.00000          -1.899167          -51.67895
    151       2.00000          -1.898027          -51.64795
    152       2.00000          -1.898004          -51.64732
    153       2.00000          -1.894805          -51.56028
    154       2.00000          -1.891000          -51.45672
    155       2.00000          -1.889665          -51.42040
    156       2.00000          -1.887883          -51.37192
    157       2.00000          -1.887085          -51.35020
    158       2.00000          -1.886587          -51.33665
    159       2.00000          -1.885253          -51.30035
    160       2.00000          -1.884275          -51.27374
    161       2.00000          -0.844784          -22.98774
    162       2.00000          -0.824962          -22.44835
    163       2.00000          -0.823553          -22.41002
    164       2.00000          -0.817580          -22.24749
    165       2.00000          -0.809883          -22.03803
    166       2.00000          -0.804202          -21.88346
    167       2.00000          -0.799607          -21.75840
    168       2.00000          -0.796138          -21.66402
    169       2.00000          -0.794453          -21.61817
    170       2.00000          -0.791379          -21.53452
    171       2.00000          -0.790143          -21.50090
    172       2.00000          -0.788287          -21.45037
    173       2.00000          -0.743345          -20.22743
    174       2.00000          -0.740129          -20.13994
    175       2.00000          -0.737533          -20.06928
    176       2.00000          -0.730044          -19.86551
    177       2.00000          -0.726417          -19.76682
    178       2.00000          -0.725294          -19.73626
    179       2.00000          -0.720027          -19.59292
    180       2.00000          -0.711862          -19.37074
    181       2.00000          -0.705047          -19.18529
    182       2.00000          -0.703283          -19.13730
    183       2.00000          -0.699999          -19.04793
    184       2.00000          -0.698838          -19.01635
    185       2.00000          -0.568476          -15.46903
    186       2.00000          -0.556619          -15.14637
    187       2.00000          -0.541841          -14.74425
    188       2.00000          -0.531370          -14.45932
    189       2.00000          -0.460911          -12.54202
    190       2.00000          -0.458556          -12.47794
    191       2.00000          -0.454104          -12.35680
    192       2.00000          -0.451692          -12.29118
    193       2.00000          -0.444516          -12.09588
    194       2.00000          -0.439210          -11.95151
    195       2.00000          -0.434320          -11.81844
    196       2.00000          -0.432679          -11.77379
    197       2.00000          -0.431376          -11.73833
    198       2.00000          -0.427620          -11.63612
    199       2.00000          -0.421833          -11.47865
    200       2.00000          -0.419482          -11.41469
    201       2.00000          -0.414304          -11.27380
    202       2.00000          -0.410019          -11.15720
    203       2.00000          -0.408184          -11.10726
    204       2.00000          -0.400091          -10.88703
    205       2.00000          -0.396526          -10.79002
    206       2.00000          -0.391894          -10.66399
    207       2.00000          -0.389883          -10.60925
    208       2.00000          -0.388272          -10.56542
    209       2.00000          -0.386321          -10.51233
    210       2.00000          -0.385121          -10.47969
    211       2.00000          -0.382235          -10.40115
    212       2.00000          -0.379821          -10.33545
    213       2.00000          -0.377805          -10.28059
    214       2.00000          -0.376658          -10.24939
    215       2.00000          -0.374780          -10.19829
    216       2.00000          -0.373477          -10.16283
    217       2.00000          -0.371743          -10.11564
    218       2.00000          -0.371325          -10.10427
    219       2.00000          -0.368729          -10.03362
    220       2.00000          -0.368469          -10.02655
    221       2.00000          -0.366980           -9.98602
    222       2.00000          -0.364786           -9.92634
    223       2.00000          -0.362785           -9.87189
    224       2.00000          -0.362289           -9.85838
    225       2.00000          -0.361242           -9.82988
    226       2.00000          -0.359602           -9.78527
    227       2.00000          -0.358410           -9.75284
    228       2.00000          -0.354622           -9.64975
    229       2.00000          -0.353168           -9.61020
    230       2.00000          -0.351133           -9.55481
    231       2.00000          -0.347382           -9.45276
    232       2.00000          -0.345117           -9.39111
    233       2.00000          -0.344643           -9.37821
    234       2.00000          -0.341681           -9.29763
    235       2.00000          -0.339469           -9.23742
    236       2.00000          -0.339289           -9.23251
    237       2.00000          -0.336095           -9.14562
    238       2.00000          -0.333041           -9.06250
    239       2.00000          -0.331713           -9.02637
    240       2.00000          -0.329305           -8.96085
    241       2.00000          -0.327347           -8.90757
    242       2.00000          -0.324753           -8.83699
    243       2.00000          -0.323150           -8.79337
    244       2.00000          -0.317095           -8.62860
    245       2.00000          -0.316201           -8.60427
    246       2.00000          -0.313366           -8.52713
    247       2.00000          -0.309491           -8.42167
    248       2.00000          -0.304718           -8.29180
    249       2.00000          -0.303048           -8.24636
    250       2.00000          -0.297988           -8.10866
    251       2.00000          -0.293111           -7.97596
    252       2.00000          -0.290540           -7.90599
    253       2.00000          -0.287828           -7.83220
    254       2.00000          -0.280899           -7.64365
    255       2.00000          -0.278742           -7.58497
    256       2.00000          -0.274743           -7.47613
    257       0.00000          -0.188697           -5.13471
    258       0.00000          -0.146066           -3.97467
    259       0.00000          -0.140103           -3.81239
    260       0.00000          -0.132729           -3.61174
    261       0.00000          -0.128803           -3.50491
    262       0.00000          -0.125360           -3.41122
    263       0.00000          -0.121949           -3.31839
    264       0.00000          -0.119535           -3.25271
    265       0.00000          -0.117760           -3.20442
    266       0.00000          -0.116931           -3.18185
    267       0.00000          -0.112781           -3.06892
    268       0.00000          -0.101260           -2.75543
    269       0.00000          -0.097340           -2.64875
    270       0.00000          -0.087216           -2.37326
    271       0.00000          -0.083794           -2.28014
    272       0.00000          -0.082758           -2.25196
    273       0.00000          -0.080108           -2.17984
    274       0.00000          -0.076125           -2.07147
    275       0.00000          -0.074212           -2.01942
    276       0.00000          -0.070134           -1.90845
    277       0.00000          -0.069262           -1.88471
    278       0.00000          -0.065772           -1.78975
    279       0.00000          -0.060760           -1.65337
    280       0.00000          -0.058645           -1.59581
    281       0.00000          -0.057621           -1.56796
    282       0.00000          -0.050186           -1.36562
    283       0.00000          -0.049147           -1.33737
    284       0.00000          -0.043292           -1.17804
    285       0.00000          -0.041151           -1.11977
    286       0.00000          -0.040027           -1.08919
    287       0.00000          -0.031244           -0.85019
    288       0.00000          -0.029766           -0.80998
[...]
    308       0.00000           0.039218            1.06717
    309       0.00000           0.040858            1.11181
    310       0.00000           0.042605            1.15935
    311       0.00000           0.043897            1.19448
    312       0.00000           0.046013            1.25209
    313       0.00000           0.047925            1.30412
    314       0.00000           0.049049            1.33468
    315       0.00000           0.052549            1.42994
    316       0.00000           0.054494            1.48287
    317       0.00000           0.055895            1.52099
    318       0.00000           0.060791            1.65422
    319       0.00000           0.061454            1.67224
    320       0.00000           0.061711            1.67925
    321       0.00000           0.065900            1.79323
    322       0.00000           0.070457            1.91724
    323       0.00000           0.073450            1.99867
    324       0.00000           0.073738            2.00651
    325       0.00000           0.075889            2.06504
    326       0.00000           0.081359            2.21390
    327       0.00000           0.083480            2.27162
    328       0.00000           0.084978            2.31238
    329       0.00000           0.086936            2.36565
    330       0.00000           0.089414            2.43308
    331       0.00000           0.090917            2.47396
    332       0.00000           0.094538            2.57252
    333       0.00000           0.095948            2.61088
    334       0.00000           0.097432            2.65126
    335       0.00000           0.100472            2.73399
    336       0.00000           0.103896            2.82715
    337       0.00000           0.104972            2.85644
    338       0.00000           0.107875            2.93542
    339       0.00000           0.111372            3.03058
    340       0.00000           0.114342            3.11141
    341       0.00000           0.118499            3.22451
    342       0.00000           0.119636            3.25546
    343       0.00000           0.122428            3.33144
    344       0.00000           0.124313            3.38274
    345       0.00000           0.127680            3.47434
    346       0.00000           0.132452            3.60421
    347       0.00000           0.135778            3.69470
    348       0.00000           0.139966            3.80867
    349       0.00000           0.140838            3.83238
    350       0.00000           0.141266            3.84404
    351       0.00000           0.145451            3.95792
    352       0.00000           0.147626            4.01711
    353       0.00000           0.153674            4.18167
    354       0.00000           0.157947            4.29796
    355       0.00000           0.158832            4.32203
    356       0.00000           0.161830            4.40361
    357       0.00000           0.163649            4.45313
    358       0.00000           0.167515            4.55833
    359       0.00000           0.169500            4.61233
    360       0.00000           0.174194            4.74007
    361       0.00000           0.175802            4.78380
    362       0.00000           0.179653            4.88860
    363       0.00000           0.181853            4.94847
    364       0.00000           0.185861            5.05753
    365       0.00000           0.189444            5.15504
    366       0.00000           0.192418            5.23597
    367       0.00000           0.193413            5.26303
    368       0.00000           0.197959            5.38674
    369       0.00000           0.198465            5.40052
    370       0.00000           0.204599            5.56742

  What follows are estimated values for band gap, HOMO, LUMO, etc.
  | They are estimated on a discrete k-point grid and not necessarily exact.
  | For converged numbers, create a DOS and/or band structure plot on a denser k-grid.

  Highest occupied state (VBM) at     -6.18034916 eV (relative to internal zero)
  | Occupation number:      2.00000000
  | K-point:      12 at    0.333333    0.666667    0.666667 (in units of recip. lattice)

  Lowest unoccupied state (CBM) at    -5.27157092 eV (relative to internal zero)
  | Occupation number:      0.00000000
  | K-point:       1 at    0.000000    0.000000    0.000000 (in units of recip. lattice)

  ESTIMATED overall HOMO-LUMO gap:      0.90877824 eV between HOMO at k-point 12 and LUMO at k-point 1
  | This appears to be an indirect band gap.
  | Smallest direct gap :      0.91862366 eV for k_point 1 at    0.000000    0.000000    0.000000 (in units of recip. lattice)
  The gap value is above 0.2 eV. Unless you are using a very sparse k-point grid,
  this system is most likely an insulator or a semiconductor.

  Self-consistency cycle converged.

  End self-consistency iteration #    21       :  max(cpu_time)    wall_clock(cpu1)
  | Time for this iteration                    :       14.394 s          14.395 s
  | Charge density & force component update    :        9.531 s           9.530 s
  | Density mixing                             :        0.007 s           0.007 s
  | Hartree multipole update                   :        0.005 s           0.005 s
  | Hartree multipole summation                :        3.821 s           3.821 s
  | Integration                                :        0.660 s           0.660 s
  | Solution of K.-S. eqns.                    :        0.366 s           0.366 s
  | Total energy evaluation                    :        0.002 s           0.002 s

  Partial memory accounting:
  | Current value for overall tracked memory usage on task 0  :          13.164 MB
  | Peak value for overall tracked memory usage on task 0     :          26.271 MB after allocating wave_pulay
  | Largest tracked array allocation on task 0 so far         :           8.387 MB  when allocating kdm_complex
  Note:  These values currently only include a subset of arrays which are explicitly tracked.
  The "true" memory usage will be greater.
------------------------------------------------------------
  |------------------------------------------
  | Final ELSI Output
  |------------------------------------------
  | Number of basis functions :          724
  | Number of electrons       :        512.0
  | Number of states          :          370
  | Solver                    :         ELPA
  | Parallel mode             :  SINGLE_PROC
  | Matrix format             :  BLACS_DENSE
  |------------------------------------------
  | ELSI Project (c)  elsi-interchange.org
  |------------------------------------------
  Removing unitary transformations (pure translations, rotations) from forces on atoms.
  Atomic forces before filtering:
  | Net force on center of mass :   0.789662E-02  0.120326E-01  0.703438E-02 eV/A
  Atomic forces after filtering:
  | Net force on center of mass :  -0.267609E-15  0.227468E-14 -0.356812E-15 eV/A

  Energy and forces in a compact form:
  | Total energy uncorrected      :         -0.314727945254020E+06 eV
  | Total energy corrected        :         -0.314727945254020E+06 eV  <-- do not rely on this value for anything but (periodic) metals
  | Electronic free energy        :         -0.314727945254020E+06 eV
  Total atomic forces (unitary forces cleaned) [eV/Ang]:
  |   1          0.115957627038784E+01          0.313266750825312E+01         -0.129564538290151E+01
  |   2          0.345827924598233E+00         -0.127812644053906E+01          0.130687939697463E+01
  |   3         -0.204404859494330E+00          0.245074038271027E+00         -0.542469739469787E+00
  |   4          0.233763470953705E+00         -0.328982978388029E+00          0.493165262425671E+00
  |   5          0.494338263526476E+00         -0.974931447576127E+00          0.495542983042045E+00
  |   6          0.212813195098825E+00         -0.430299725826156E+00          0.147421619716150E+00
  |   7          0.103432813973017E+01          0.127931529522358E+01          0.544105295652601E+00
  |   8         -0.374045547164865E+00         -0.215039948966707E+01         -0.216146892314086E-01
  |   9          0.116378313859317E+01          0.105331664937923E+01          0.538193857397458E+00
  |  10          0.180751447867943E+01         -0.139076958191004E+01         -0.109160100518371E+01
  |  11          0.839966961470456E+00          0.122699618628042E+01          0.247508694761021E+01
  |  12         -0.184487698197864E+01          0.246457228037509E+00         -0.799592956731070E+00
  |  13          0.233199110224326E+01          0.232553846216351E+01          0.458166610446159E+00
  |  14         -0.465923101370944E+00         -0.634209310401814E+00          0.156437054119886E+01
  |  15         -0.591512340999582E+01         -0.319774270102963E+01         -0.240392945759797E+01
  |  16         -0.532801138912211E+00         -0.108735321392161E+01         -0.202396364716072E+00
  |  17         -0.431501021321633E+01          0.109802985519826E+00         -0.164738907524186E+01
  |  18          0.208288656808403E+01          0.110557230393048E+01         -0.545584989384889E+01
  |  19          0.236610041529087E+00          0.123834000436335E+00         -0.687870366690669E+00
  |  20         -0.623958261142630E+00          0.215094971866054E+01          0.235467565555080E+01
  |  21         -0.117235325976994E+01          0.214129597599405E+01          0.233760794591324E+01
  |  22          0.101206522049313E+01          0.959992364947770E+00         -0.167650965956850E+01
  |  23          0.430089325624201E+00         -0.326454994692197E+00         -0.810674732758988E+00
  |  24          0.204876355554463E+00         -0.398479989305664E+01          0.183185836518154E+01
  |  25         -0.201365670122672E+01         -0.588940749897901E+00         -0.277381385042996E+01
  |  26         -0.339001260529547E+00         -0.460549328781164E+00         -0.177979520519187E+01
  |  27         -0.257353207298495E+01         -0.156411451561283E+01          0.263042775119679E+01
  |  28          0.899817862565455E+00         -0.147703724112988E+01          0.925364404184925E+00
  |  29         -0.169740133756680E+00         -0.471406319752083E+00          0.455383682063986E+00
  |  30         -0.253391617456081E+01         -0.184234030758203E+01          0.179280968455239E+00
  |  31          0.690032949940784E+01          0.382438283809687E+00          0.618542272963635E+01
  |  32         -0.455919338903660E+00          0.111808035011179E+01         -0.436213537227700E+00
  |  33         -0.101727910700715E+01          0.651201281961048E+00          0.136728771367655E+00
  |  34          0.424792094173238E-01          0.138054699756680E+00          0.116385030214198E+00
  |  35         -0.729135451501200E-01         -0.947457323496924E-01         -0.429560337099475E+00
  |  36          0.763000144116958E+00          0.116628963300152E+01         -0.175673459296376E+00
  |  37          0.101478008570101E+01          0.605356730638750E+00         -0.183411881771266E+01
  |  38          0.516716082512695E-01          0.110688737180544E+01         -0.350660756085716E+00
  |  39         -0.199918742355105E+01          0.236578250098857E+01          0.985558169248149E+00
  |  40          0.323833875605299E-01          0.633621193785422E+00         -0.308644421771612E+00
  |  41         -0.506925995333579E+00         -0.641372281108301E+00          0.158942148243185E+00
  |  42          0.158223588758472E+00          0.400923156141106E+00         -0.440821350151025E+00
  |  43          0.339235343902058E-02         -0.616797832000518E+00         -0.259667785964380E+00
  |  44          0.476149984901751E+00          0.222226589150238E+00          0.276346932010948E-01
  |  45         -0.257367231321786E+00         -0.336329830611246E+00          0.562409082677620E+00
  |  46          0.382646999881371E+01         -0.379502171021764E+00          0.154607827902212E+01
  |  47          0.793795406723707E-01         -0.474601215101465E+00         -0.947981980453645E-01
  |  48         -0.450571962800427E+00         -0.159867206290393E+00         -0.293737914770411E+01

  ------------------------------------ 
  Start decomposition of the XC Energy 
  ------------------------------------ 
  X and C from original XC functional choice 
  Hartree-Fock Energy :          0.000000000 Ha              0.000000000 eV
  X Energy            :       -745.518627471 Ha         -20286.594024032 eV
  C Energy            :        -19.344349504 Ha           -526.386532268 eV
  Total XC Energy     :       -764.862976976 Ha         -20812.980556301 eV
  ------------------------------------ 
  LDA X and C from self-consistent density 
  X Energy LDA        :       -690.159129145 Ha         -18780.185429346 eV
  C Energy LDA        :        -38.828673720 Ha          -1056.581970217 eV
  ------------------------------------ 
  End decomposition of the XC Energy 
  ------------------------------------ 

------------------------------------------------------------

------------------------------------------------------------------------------
  Final output of selected total energy values:

  The following output summarizes some interesting total energy values
  at the end of a run (AFTER all relaxation, molecular dynamics, etc.).

  | Total energy of the DFT / Hartree-Fock s.c.f. calculation      :        -314727.945254020 eV
  | Final zero-broadening corrected energy (caution - metals only) :        -314727.945254020 eV
  | For reference only, the value of 1 Hartree used in FHI-aims is :             27.211384500 eV

  Before relying on these values, please be sure to understand exactly which
  total energy value is referred to by a given number. Different objects may
  all carry the same name 'total energy'. Definitions:

  Total energy of the DFT / Hartree-Fock s.c.f. calculation:
  | Note that this energy does not include ANY quantities calculated after the
  | s.c.f. cycle, in particular not ANY RPA, MP2, etc. many-body perturbation terms.

  Final zero-broadening corrected energy:
  | For metallic systems only, a broadening of the occupation numbers at the Fermi
  | level can be extrapolated back to zero broadening by an electron-gas inspired
  | formula. For all systems that are not real metals, this value can be
  | meaningless and should be avoided.

------------------------------------------------------------------------------
  Methods described in the following list of references were used in this FHI-aims run.
  If you publish the results, please make sure to cite these reference if they apply.
  FHI-aims is an academic code, and for our developers (often, Ph.D. students
  and postdocs), scientific credit in the community is essential.
  Thank you for helping us!

  For any use of FHI-aims, please cite:

    Volker Blum, Ralf Gehrke, Felix Hanke, Paula Havu, Ville Havu,
    Xinguo Ren, Karsten Reuter, and Matthias Scheffler
    'Ab initio molecular simulations with numeric atom-centered orbitals'
    Computer Physics Communications 180, 2175-2196 (2009)
    http://dx.doi.org/10.1016/j.cpc.2009.06.022


  The provided symmetry information was generated with SPGlib:

    Atsushi Togo, Yusuke Seto, Dimitar Pashov
    SPGlib 1.7.3 obtained from http://spglib.sourceforge.net
    Copyright (C) 2008 Atsushi Togo


  The scalable eigensolver library ELPA was used in your run.
  ELPA is essential especially for large systems on hundreds or thousands of CPUs.
  For ELPA, please cite:

    Andreas Marek, Volker Blum, Rainer Johanni, Ville Havu, Bruno Lang,
    Thomas Auckenthaler, Alexander Heinecke, Hans-Joachim Bungartz, and Hermann Lederer,
    'The ELPA Library - Scalable Parallel Eigenvalue Solutions
    for Electronic Structure Theory and Computational Science'
    The Journal of Physics: Condensed Matter 26, 213201 (2014).
    http://dx.doi.org/10.1088/0953-8984/26/21/213201


  The ELSI infrastructure was used in your run to solve the Kohn-Sham electronic structure.
  Please check out http://elsi-interchange.org to learn more.
  If scalability is important for your project, please acknowledge ELSI by citing:

    V. W-z. Yu, F. Corsetti, A. Garcia, W. P. Huhn, M. Jacquelin, W. Jia,
    B. Lange, L. Lin, J. Lu, W. Mi, A. Seifitokaldani, A. Vazquez-Mayagoitia,
    C. Yang, H. Yang, and V. Blum
    'ELSI: A unified software interface for Kohn-Sham electronic structure solvers'
    Computer Physics Communications 222, 267-285 (2018).
    http://dx.doi.org/10.1016/j.cpc.2017.09.007


  For the real-space grid partitioning and parallelization used in this calculation, please cite:

    Ville Havu, Volker Blum, Paula Havu, and Matthias Scheffler,
    'Efficient O(N) integration for all-electron electronic structure calculation'
    'using numerically tabulated basis functions'
    Journal of Computational Physics 228, 8367-8379 (2009).
    http://dx.doi.org/10.1016/j.jcp.2009.08.008

  Of course, there are many other important community references, e.g., those cited in the
  above references. Our list is limited to references that describe implementations in the
  FHI-aims code. The reason is purely practical (length of this list) - please credit others as well.

 * A warning was issued further up regarding the CPU load.
   Some CPUs do not participate in the eigenvalue solution.
   In corner cases, this may be the correct behavior. Otherwise,
   consider using a scalapack/elpa version of the code for a parallel treatment.

------------------------------------------------------------
          Leaving FHI-aims.
          Date     :  20220723, Time     :  171018.602

          Computational steps:
          | Number of self-consistency cycles          :           21
          | Number of SCF (re)initializations          :            1

          Detailed time accounting                     :  max(cpu_time)    wall_clock(cpu1)
          | Total time                                 :      108.954 s         108.975 s
          | Preparation time                           :        0.412 s           0.409 s
          | Boundary condition initalization           :        0.245 s           0.245 s
          | Grid partitioning                          :        0.246 s           0.246 s
          | Preloading free-atom quantities on grid    :        0.009 s           0.017 s
          | Free-atom superposition energy             :        0.131 s           0.130 s
          | Total time for integrations                :       15.063 s          15.061 s
          | Total time for solution of K.-S. equations :        8.262 s           8.272 s
          | Total time for density & force components  :       31.335 s          31.334 s
          | Total time for mixing & preconditioning    :       18.988 s          18.999 s
          | Total time for Hartree multipole update    :        0.098 s           0.096 s
          | Total time for Hartree multipole sum       :       33.358 s          33.363 s
          | Total time for total energy evaluation     :        0.009 s           0.027 s

          Partial memory accounting:
          | Residual value for overall tracked memory usage across tasks :           0.000 MB (should be 0.000 MB)
          | Peak values for overall tracked memory usage (after allocating wave_pulay):
          |   Minimum:       26.033 MB (on task 16)
          |   Maximum:       51.015 MB (on task  2)
          |   Average:       43.657 MB
          | Largest tracked array allocation (kdm_complex):
          |   Minimum:        8.387 MB (on task  1)
          |   Maximum:        8.387 MB (on task  1)
          |   Average:        8.387 MB
          Note:  These values currently only include a subset of arrays which are explicitly tracked.
          The "true" memory usage will be greater.

          Have a nice day.
------------------------------------------------------------
