  MPI-parallelism will be employed.
------------------------------------------------------------
          Invoking FHI-aims ...
          Version 171221_1
          Compiled on 2020/09/23 at 19:46:43 on host login.service.

          When using FHI-aims, please cite the following reference:

          Volker Blum, Ralf Gehrke, Felix Hanke, Paula Havu,
          Ville Havu, Xinguo Ren, Karsten Reuter, and Matthias Scheffler,
          'Ab Initio Molecular Simulations with Numeric Atom-Centered Orbitals',
          Computer Physics Communications 180, 2175-2196 (2009)

          For any questions about FHI-aims, please visit the aimsclub website
          with its forums and wiki. Contributions to both the forums and the
          wiki are warmly encouraged - they are for you, and everyone is welcome there.

------------------------------------------------------------



  Date     :  20220704, Time     :  073538.696
  Time zero on CPU 1             :   0.907290000000000E-01  s.
  Internal wall clock time zero  :           426152138.696  s.

  FHI-aims created a unique identifier for this run for later identification
  aims_uuid : 10A50427-2458-4D36-A10A-D948FB81273D

  Using       20 parallel tasks.
  Task        0 on host node042 reporting.
  Task        1 on host node042 reporting.
  Task        2 on host node042 reporting.
  Task        3 on host node042 reporting.
  Task        4 on host node042 reporting.
  Task        5 on host node042 reporting.
  Task        6 on host node042 reporting.
  Task        7 on host node042 reporting.
  Task        8 on host node042 reporting.
  Task        9 on host node042 reporting.
  Task       10 on host node042 reporting.
  Task       11 on host node042 reporting.
  Task       12 on host node042 reporting.
  Task       13 on host node042 reporting.
  Task       14 on host node042 reporting.
  Task       15 on host node042 reporting.
  Task       16 on host node042 reporting.
  Task       17 on host node042 reporting.
  Task       18 on host node042 reporting.
  Task       19 on host node042 reporting.

  Performing system and environment tests:
  *** Environment variable OMP_NUM_THREADS is not set
  *** For performance reasons you might want to set it to 1
  | Maximum stacksize for task 0: unlimited
  | Maximum stacksize for task 1: unlimited
  | Maximum stacksize for task 2: unlimited
  | Maximum stacksize for task 3: unlimited
  | Maximum stacksize for task 4: unlimited
  | Maximum stacksize for task 5: unlimited
  | Maximum stacksize for task 6: unlimited
  | Maximum stacksize for task 7: unlimited
  | Maximum stacksize for task 8: unlimited
  | Maximum stacksize for task 9: unlimited
  | Maximum stacksize for task 10: unlimited
  | Maximum stacksize for task 11: unlimited
  | Maximum stacksize for task 12: unlimited
  | Maximum stacksize for task 13: unlimited
  | Maximum stacksize for task 14: unlimited
  | Maximum stacksize for task 15: unlimited
  | Maximum stacksize for task 16: unlimited
  | Maximum stacksize for task 17: unlimited
  | Maximum stacksize for task 18: unlimited
  | Maximum stacksize for task 19: unlimited
  | Current stacksize for task 0: unlimited
  | Current stacksize for task 1: unlimited
  | Current stacksize for task 2: unlimited
  | Current stacksize for task 3: unlimited
  | Current stacksize for task 4: unlimited
  | Current stacksize for task 5: unlimited
  | Current stacksize for task 6: unlimited
  | Current stacksize for task 7: unlimited
  | Current stacksize for task 8: unlimited
  | Current stacksize for task 9: unlimited
  | Current stacksize for task 10: unlimited
  | Current stacksize for task 11: unlimited
  | Current stacksize for task 12: unlimited
  | Current stacksize for task 13: unlimited
  | Current stacksize for task 14: unlimited
  | Current stacksize for task 15: unlimited
  | Current stacksize for task 16: unlimited
  | Current stacksize for task 17: unlimited
  | Current stacksize for task 18: unlimited
  | Current stacksize for task 19: unlimited
  | Checking for scalapack...
  | Testing pdtran()...
  | All pdtran() tests passed.

  Obtaining array dimensions for all initial allocations:
  
  -----------------------------------------------------------------------
  Parsing control.in (first pass over file, find array dimensions only).
  The contents of control.in will be repeated verbatim below
  unless switched off by setting 'verbatim_writeout .false.' .
  in the first line of control.in .
  -----------------------------------------------------------------------
  
  #===============================================================================
  # FHI-aims file: ./control.in
  # Created using the Atomic Simulation Environment (ASE)
  # Wed Mar 24 12:41:28 2021
  #===============================================================================
  xc                                 pbe
  sc_accuracy_etot                   1e-06
  sc_accuracy_eev                    0.001
  sc_accuracy_rho                    1e-06
  sc_accuracy_forces                 0.0001
  friction_temperature               300  # default 300
  
    k_grid                           1  1  2
  
  
  
  ################################################################################
  #
  #  FHI-aims code project
  # Volker Blum, Fritz Haber Institute Berlin, 2009
  #
  #  Suggested "tight" defaults for Li atom (to be pasted into control.in file)
  #
  #  2016/03/22: Increased cutoff radius to 5.0 AA (Xinguo Ren, Aug 15, 2015)
  #
  ################################################################################
    species        Li
  #     global species definitions
      nucleus             3
      mass                6.941
  #
      l_hartree           6
  #
      cut_pot             5.0  2.0  1.0
      basis_dep_cutoff    1e-4
  #
      radial_base         29 7.0
      radial_multiplier   2
      angular_grids       specified
        division   0.4484  110
        division   0.5659  194
        division   0.6315  302
        division   0.6662  434
  #      division   0.8186  590
  #      division   0.9037  770
  #      division   6.2760  974
  #      outer_grid   974
        outer_grid  434
  ################################################################################
  #
  #  Definition of "minimal" basis
  #
  ################################################################################
  #     valence basis states
      valence      2  s   1.
  #     ion occupancy
      ion_occ      1  s   2.
  ################################################################################
  #
  #  Suggested additional basis functions. For production calculations,
  #  uncomment them one after another (the most important basis functions are
  #  listed first).
  #
  #  Constructed for dimers: 1.80 A, 2.25 A, 2.75 A, 3.50 A, 4.50 A
  #
  ################################################################################
  #  "First tier" - improvements: -189.23 meV to -6.35 meV
       hydro 2 p 1.6
       hydro 2 s 2
       hydro 3 d 2.6
  #  "Second tier" - improvements: -4.69 meV to -0.41 meV
       hydro 3 p 4.6
       hydro 2 p 1.8
       hydro 3 s 6.2
       hydro 4 d 4.7
       hydro 4 f 4.1
  #  "Third tier" - improvements: -0.20 meV to -0.15 meV
  #     hydro 4 d 0.95
  #     hydro 3 p 6.2
  #     hydro 3 s 1.7
  #  Further functions, listed for completeness
  #     VB: The following functions are only listed for completeness; test very
  #         carefully before any kind of production use. From the point of view
  #         of the basis construction, their main role is to fill up space,
  #         and they are solely determined by the location of the cutoff potential.
  #     hydro 3 p 0.1  # -0.15 meV
  #     hydro 4 d 5    # -0.12 meV
  #     hydro 4 f 0.1  # -0.14 meV
  #     hydro 5 g 0.1  # -0.06 meV
  
  
  ################################################################################
  #
  # For methods that use the localized form of the "resolution of identity" for
  # the two-electron Coulomb operator (RI_method LVL), particularly Hartree-Fock and
  # hybrid density functional calculations, the highest accuracy can be obtained by
  # uncommenting the line beginning with "for_aux"  below, thus adding an extra g radial
  # function to the construction of the product basis set for the expansion.
  # See Ref. New J. Phys. 17, 093020 (2015) for more information, particularly Figs. 1 and 6.
  #
  ################################################################################
  #
  # for_aux hydro 5 g 6.0
  ################################################################################
  #
  #  FHI-aims code project
  # Volker Blum, Fritz Haber Institute Berlin, 2010
  #
  #  Suggested "tight" defaults for P atom (to be pasted into control.in file)
  #
  #  Revised Jan 04, 2011, following tests (SiC) done by Lydia Nemec:
  #     d function of tier 2 now enabled by default.
  #
  ################################################################################
    species        P
  #     global species definitions
      nucleus             15
      mass                30.973762
  #
      l_hartree           6
  #
      cut_pot             4.0          2.0  1.0
      basis_dep_cutoff    1e-4
  #
      radial_base         43 7.0
      radial_multiplier   2
      angular_grids       specified
        division   0.2995   50
        division   0.5998  110
        division   0.9240  194
        division   1.0921  302
        division   1.2863  434
  #      division   1.3165  590
  #      division   1.4113  770
  #      division   1.5128  974
  #      division   2.4980 1202
        outer_grid  434
  ################################################################################
  #
  #  Definition of "minimal" basis
  #
  ################################################################################
  #     valence basis states
      valence      3  s   2.
      valence      3  p   3.
  #     ion occupancy
      ion_occ      3  s   1.
      ion_occ      3  p   2.
  ################################################################################
  #
  #  Suggested additional basis functions. For production calculations,
  #  uncomment them one after another (the most important basis functions are
  #  listed first).
  #
  #  Constructed for dimers: 1.625 A, 1.875 A, 2.5 A, 3.25 A, 4.0 A
  #
  ################################################################################
  #  "First tier" - improvements: -726.20 meV to -35.91 meV
       ionic 3 d auto
       ionic 3 p auto
       hydro 4 f 6.2
       hydro 5 g 8.6
       ionic 3 s auto
  #  "Second tier" - improvements: -16.02 meV to -1.71 meV
       hydro 4 d 6.2
  #     hydro 4 p 9.2
  #     hydro 5 f 9.8
  #     hydro 1 s 0.7
  #     hydro 5 g 13.2
  #  "Third tier" - improvements: -1.82 meV to -0.20 meV
  #     hydro 3 p 2.5
  #     hydro 4 d 6.4
  #     hydro 5 f 11.2
  #     hydro 2 s 1.5
  #  "Fourth tier" - improvements: -0.91 meV to -0.17 meV
  #     hydro 3 d 16.8
  #     hydro 5 g 18
  #     hydro 4 p 4.5
  #     hydro 3 s 2.1
  #  Further basis functions that fell out of the optimization - < -0.09 meV
  #     hydro 4 p 10.4
  #     hydro 4 d 17.6
  #     hydro 4 s 11.2
  ################################################################################
  #
  # For methods that use the localized form of the "resolution of identity" for
  # the two-electron Coulomb operator (RI_method LVL), particularly Hartree-Fock and
  # hybrid density functional calculations, the highest accuracy can be obtained by
  # uncommenting the line beginning with "for_aux"  below, thus adding an extra g radial
  # function to the construction of the product basis set for the expansion.
  # See Ref. New J. Phys. 17, 093020 (2015) for more information, particularly Figs. 1 and 6.
  #
  ################################################################################
  #
  # for_aux hydro 5 g 6.0
  ################################################################################
  #
  #  FHI-aims code project
  # Volker Blum, Fritz Haber Institute Berlin, 2009
  #
  #  Suggested "tight" defaults for S atom (to be pasted into control.in file)
  #
  #  Revised Jan 04, 2011, following tests (SiC) done by Lydia Nemec:
  #     d and g functions of tier 2 now enabled by default.
  #
  ################################################################################
    species        S
  #     global species definitions
      nucleus             16
      mass                32.065
  #
      l_hartree           6
  #
      cut_pot             4.0          2.0  1.0
      basis_dep_cutoff    1e-4
  #
      radial_base         44 7.0
      radial_multiplier   2
      angular_grids       specified
        division   0.4665  110
        division   0.5810  194
        division   0.7139  302
        division   0.8274  434
  #      division   0.9105  590
  #      division   1.0975  770
  #      division   1.2028  974
  #      outer_grid  974
        outer_grid  434
  ################################################################################
  #
  #  Definition of "minimal" basis
  #
  ################################################################################
  #     valence basis states
      valence      3  s   2.
      valence      3  p   4.
  #     ion occupancy
      ion_occ      3  s   1.
      ion_occ      3  p   3.
  ################################################################################
  #
  #  Suggested additional basis functions. For production calculations,
  #  uncomment them one after another (the most important basis functions are
  #  listed first).
  #
  #  Constructed for dimers: 1.6 A, 1.9 A, 2.5 A, 3.25 A, 4.0 A
  #
  ################################################################################
  #  "First tier" - improvements: -652.81 meV to -45.53 meV
       ionic 3 d auto
       hydro 2 p 1.8
       hydro 4 f 7
       ionic 3 s auto
  #  "Second tier" - improvements: -30.20 meV to -1.74 meV
       hydro 4 d 6.2
       hydro 5 g 10.8
  #     hydro 4 p 4.9
  #     hydro 5 f 10
  #     hydro 1 s 0.8
  #  "Third tier" - improvements: -1.04 meV to -0.20 meV
  #     hydro 3 d 3.9
  #     hydro 3 d 2.7
  #     hydro 5 g 12
  #     hydro 4 p 10.4
  #     hydro 5 f 12.4
  #     hydro 2 s 1.9
  #  "Fourth tier" - improvements: -0.35 meV to -0.06 meV
  #     hydro 4 d 10.4
  #     hydro 4 p 7.2
  #     hydro 4 d 10
  #     hydro 5 g 19.2
  #     hydro 4 s 12
  
  ################################################################################
  #
  # For methods that use the localized form of the "resolution of identity" for
  # the two-electron Coulomb operator (RI_method LVL), particularly Hartree-Fock and
  # hybrid density functional calculations, the highest accuracy can be obtained by
  # uncommenting the line beginning with "for_aux"  below, thus adding an extra g radial
  # function to the construction of the product basis set for the expansion.
  # See Ref. New J. Phys. 17, 093020 (2015) for more information, particularly Figs. 1 and 6.
  #
  ################################################################################
  #
  # for_aux hydro 5 g 6.0
  ################################################################################
  #
  #  FHI-aims code project
  # Volker Blum, Fritz Haber Institute Berlin, 2009
  #
  #  Suggested "tight" defaults for Cl atom (to be pasted into control.in file)
  #
  #  Revised Jan 04, 2011, following tests (SiC) done by Lydia Nemec:
  #     d function of tier 2 now enabled by default.
  #
  ################################################################################
    species        Cl
  #     global species definitions
      nucleus             17
      mass                35.453
  #
      l_hartree           6
  #
      cut_pot             4.0          2.0  1.0
      basis_dep_cutoff    1e-4
  #
      radial_base         45 7.0
      radial_multiplier   2
      angular_grids       specified
        division   0.4412  110
        division   0.5489  194
        division   0.6734  302
        division   0.7794  434
  #      division   0.9402  590
  #      division   1.0779  770
  #      division   1.1792  974
  #      outer_grid  974
        outer_grid  434
  ################################################################################
  #
  #  Definition of "minimal" basis
  #
  ################################################################################
  #     valence basis states
      valence      3  s   2.
      valence      3  p   5.
  #     ion occupancy
      ion_occ      3  s   1.
      ion_occ      3  p   4.
  ################################################################################
  #
  #  Suggested additional basis functions. For production calculations,
  #  uncomment them one after another (the most important basis functions are
  #  listed first).
  #
  #  Constructed for dimers: 1.65 A, 2.0 A, 2.5 A, 3.25 A, 4.0 A
  #
  ################################################################################
  #  "First tier" - improvements: -429.57 meV to -15.03 meV
       ionic 3 d auto
       hydro 2 p 1.9
       hydro 4 f 7.4
       ionic 3 s auto
       hydro 5 g 10.4
  #  "Second tier" - improvements: -7.84 meV to -0.48 meV
       hydro 3 d 3.3
  #     hydro 5 f 9.8
  #     hydro 1 s 0.75
  #     hydro 5 g 11.2
  #     hydro 4 p 10.4
  #  "Third tier" - improvements: -1.00 meV to -0.12 meV
  #     hydro 4 d 12.8
  #     hydro 4 f 4.6
  #     hydro 4 d 10.8
  #     hydro 2 s 1.8
  #     hydro 3 p 3
  #  Further functions that fell out - improvements: -0.10 meV and below
  #     hydro 5 f 14.4
  #     hydro 4 s 12.8
  #     hydro 3 d 11.6
  #     hydro 4 s 4.1
  ################################################################################
  #
  # For methods that use the localized form of the "resolution of identity" for
  # the two-electron Coulomb operator (RI_method LVL), particularly Hartree-Fock and
  # hybrid density functional calculations, the highest accuracy can be obtained by
  # uncommenting the line beginning with "for_aux"  below, thus adding an extra g radial
  # function to the construction of the product basis set for the expansion.
  # See Ref. New J. Phys. 17, 093020 (2015) for more information, particularly Figs. 1 and 6.
  #
  ################################################################################
  #
  # for_aux hydro 5 g 6.0
  
  -----------------------------------------------------------------------
  Completed first pass over input file control.in .
  -----------------------------------------------------------------------
  
  
  -----------------------------------------------------------------------
  Parsing geometry.in (first pass over file, find array dimensions only).
  The contents of geometry.in will be repeated verbatim below
  unless switched off by setting 'verbatim_writeout .false.' .
  in the first line of geometry.in .
  -----------------------------------------------------------------------
  
  #=======================================================
  # FHI-aims file: ./data/test_rep/geometry.in.9
  # Created using the Atomic Simulation Environment (ASE)
  # Mon Jul  4 10:21:46 2022
  #=======================================================
  lattice_vector 20.5924732971359994 0.0000000000000000 0.0000000000000000
  lattice_vector 0.0000000000000000 17.0947560119439999 0.0000000000000000
  lattice_vector 0.0000000000000000 0.0000000000000000 7.9031409836080000
  atom 2.8422083268800002 2.5300119499200000 4.8979911188000003 Li
  atom 1.8384830120800000 8.5781995249600005 4.4456986340000002 Li
  atom 9.4270422053599994 3.8664315788799999 2.9784271150399997 Li
  atom 7.1921542752800001 1.4675924525599999 6.6606613985600003 Li
  atom 8.4644291960800011 0.9750830096800001 3.2278870176800001 Li
  atom 7.0324201355200007 6.2488343975200005 3.6384392366400000 Li
  atom 13.1755949052000005 2.5233932557599998 2.7239218832800001 Li
  atom 12.5627702002399992 8.9008997750400010 4.6028304805599998 Li
  atom 20.2110626910400022 4.8402250738400001 4.4728281467999995 Li
  atom 14.6467564100000001 3.0577141701600001 6.6258083226400002 Li
  atom 18.7379606554399984 1.0910531257600002 4.8201308490399999 Li
  atom 16.7061245166399992 7.6069283835999997 5.6168172174400004 Li
  atom 3.6242556417600000 11.6165018652800018 4.8354286499999999 Li
  atom 1.4264327979200000 17.0283973807999978 4.5161193916800002 Li
  atom 9.5848695685600003 12.9829897704000015 4.2492687515199998 Li
  atom 6.9108522173600004 9.2019946990400001 4.9707073707200005 Li
  atom 8.7057889744800008 9.5729839316799996 2.3311617482400000 Li
  atom 6.8689749294400002 15.1394394444800007 4.8249719731199994 Li
  atom 13.0844869334400009 11.5855112048000013 2.7427241639199997 Li
  atom 11.9195782180799998 16.9928684203200007 3.6261489430400000 Li
  atom 0.1734545571200000 13.4098997468800007 4.6398688232000005 Li
  atom 17.0061690811999995 10.8628363105600005 6.5978959009600002 Li
  atom 19.2114697496799991 9.2316923420800006 3.4008437850400002 Li
  atom 17.3065892324000004 15.7033940637599994 5.4826436132000005 Li
  atom 9.5465394876800005 7.5026992986400005 4.7005135902399999 P
  atom 4.9061601846400000 0.6749861872000000 3.5438882304799999 P
  atom 20.0298863637600029 8.3218212240799989 6.6487590270399997 P
  atom 15.5668379224800013 1.2029826234400001 3.0578447224000000 P
  atom 9.6818562058400008 16.3545718783200016 5.5238367392000001 P
  atom 4.6353285222400000 8.8899514059199998 2.8714028085600005 P
  atom 20.0393852661600000 16.7139290416800037 6.7811166800000002 P
  atom 15.4485036087199994 9.3245226921600004 3.4507155571200001 P
  atom 1.2560084024800000 0.7675873431200000 7.0326803539200000 S
  atom 3.0450572880000002 0.4336504317600000 2.6221577106400002 S
  atom 5.7225460541600004 2.7225455670400001 2.4041253090400003 S
  atom 9.4045634716800013 6.4433617996800008 2.7527363916000001 S
  atom 8.1576240740800010 16.1260000917600017 6.9318948171200008 S
  atom 6.4915595336800003 8.0348414931200001 2.3465714272000002 S
  atom 11.3326211169600004 6.7675557965599999 5.7388124071200002 S
  atom 4.7716866953599997 1.2906286744000000 5.6262568679200005 S
  atom 0.3897097568000000 2.7596933478399999 2.3704816886400000 S
  atom 1.3258587565600002 4.7779951346400003 2.4838587644000003 S
  atom 7.4986691166400004 2.2954205986399998 1.3773195092799999 S
  atom 8.0189988798399998 3.1680983380800001 4.9733613446400007 S
  atom 11.6470128423999988 4.8567958805600000 4.6168191940000005 S
  atom 6.3043480447999993 4.0283362548000001 4.3142430676800005 S
  atom 3.2393601208800002 4.7084151670400001 3.5147486878400001 S
  atom 3.1116232555200001 6.0223361265599999 5.3826414553599999 S
  atom 0.4061826329600000 2.3044192506400001 4.4192474528800005 S
  atom 2.3532409617600001 4.8657160760000000 6.9228447371200001 S
  atom 10.3192885806400003 1.2581437575200001 5.3281063867200000 S
  atom 14.6295125683200009 1.0853115998400003 1.1885760941600001 S
  atom 16.5863185415200007 3.3066222092799999 3.1233039988800004 S
  atom 19.9160615430400014 7.3023966183999995 4.6374489678400002 S
  atom 18.2648872910400009 0.5622397653600000 7.2755764515200001 S
  atom 16.8261943844799973 7.8765736212800004 3.0405837633599999 S
  atom 20.1418062487200018 6.7078492291199998 0.1882634156000000 S
  atom 14.0560139855199999 1.3304468070400000 4.6202603158399995 S
  atom 10.7059426687200006 1.7634502204800000 0.3856042912800001 S
  atom 10.5284326056000008 3.8056024094400001 0.1164289432800000 S
  atom 17.9359557010399975 3.4933892094400001 4.7317851682400009 S
  atom 16.9526050376800015 4.1931713647200004 6.7357706551200005 S
  atom 0.1638436144800000 4.9248515347200001 6.9796536316000006 S
  atom 15.4915328183199996 5.4875926123200003 6.3196393915200000 S
  atom 12.6389160788800012 4.5520394420799999 7.8961485106400007 S
  atom 13.0838400898400007 6.0163830459199996 1.6655650471200001 S
  atom 10.8149941036800001 1.7475268137600002 2.5355224627199999 S
  atom 13.4932871278400004 5.1320273856799998 3.4733749086399999 S
  atom 1.1260695679999999 9.6216356506400000 6.8817425268800001 S
  atom 2.9014064757600004 8.0211649471200008 1.9704239495200000 S
  atom 4.8865136944000005 10.9693294505600001 2.1481762660800001 S
  atom 9.3115634528799998 15.2263233376800002 3.6259927860000003 S
  atom 7.8646266670400005 7.2554724891999998 5.9452208368800008 S
  atom 6.3612561594399999 16.4540466511200023 2.9024744195200003 S
  atom 11.6937500482400001 15.8139873663200010 6.2301791728800007 S
  atom 4.4275932532000004 9.2783979111200008 5.0058581601600007 S
  atom 1.3360111003199999 11.5576995955200008 2.1153030704000000 S
  atom 1.7098911034399999 13.7008960868000003 2.5299994740799998 S
  atom 6.9354310428000003 11.6471175599999999 2.4151319524800003 S
  atom 7.2985066419200004 11.7976538139200002 4.6284328043200009 S
  atom 11.5735242999999990 13.6472954394400006 5.8116704495199993 S
  atom 5.8635855574400004 13.0007812532000013 5.6465493583199997 S
  atom 3.5799876725599997 13.9122724644800009 3.7083041382400004 S
  atom 3.1546444862400000 15.1807620223999997 5.5382861528800005 S
  atom 0.9337815240000000 10.9218719136800004 4.0952958592000002 S
  atom 2.6652601092000001 14.0171485677600014 7.1720422571200002 S
  atom 10.1193194232000003 9.5799268988800002 4.6820973472000000 S
  atom 13.6440704025600006 9.2078260175200004 2.3544200586400001 S
  atom 16.2306564815200005 11.2673380466399990 2.6780701708800003 S
  atom 19.8420022559200007 15.6872430540800014 4.7648350120800007 S
  atom 18.2034248822400038 9.0114105442400003 7.4636849903200000 S
  atom 17.0010323828799983 16.9075495991999993 3.2499679024799999 S
  atom 20.0381554048000012 15.1171616273600016 0.3077135786400000 S
  atom 14.9206424754399993 9.5550640640000015 5.5382192621600010 S
  atom 10.8800601790400009 12.7931453561600001 0.8680851129600000 S
  atom 12.0562954075200004 14.5812315719200001 1.5310026971200001 S
  atom 18.2998598005600037 11.5108727739200010 2.9047868720000003 S
  atom 18.5592538705600028 12.1773925707200004 5.1951881664800004 S
  atom 0.5067588604000000 13.5433689757600000 7.1625522030400006 S
  atom 16.9043654852799996 13.2173531380800018 5.9509306022400006 S
  atom 14.0723078142400002 13.9119331613600004 1.8128165640000000 S
  atom 14.4292721539199995 14.6116434817599998 3.9007101920800000 S
  atom 10.6130623227199994 11.5056375283200012 2.4584083586400003 S
  atom 13.6357743579200008 13.1653032971199995 5.1545753916799999 S
  
  -----------------------------------------------------------------------
  Completed first pass over input file geometry.in .
  -----------------------------------------------------------------------
  

  Basic array size parameters:
  | Number of species                 :        4
  | Number of atoms                   :      104
  | Number of lattice vectors         :        3
  | Max. basis fn. angular momentum   :        4
  | Max. atomic/ionic basis occupied n:        3
  | Max. number of basis fn. types    :        3
  | Max. radial fns per species/type  :        8
  | Max. logarithmic grid size        :     1362
  | Max. radial integration grid size :       91
  | Max. angular integration grid size:      434
  | Max. angular grid division number :        8
  | Radial grid for Hartree potential :     1362
  | Number of spin channels           :        1

------------------------------------------------------------
          Reading file control.in.
------------------------------------------------------------
  XC: Using PBE gradient-corrected functionals.
  Convergence accuracy of total energy:  0.1000E-05
  Convergence accuracy of sum of eigenvalues:  0.1000E-02
  Convergence accuracy of self-consistent charge density:  0.1000E-05
  Convergence accuracy of forces:  0.1000E-03
  Friction is calculated at temperature of   0.3000E+03 K
  Found k-point grid:         1         1         2
 
  Reading configuration options for species Li                  .
  | Found nuclear charge :   3.0000
  | Found atomic mass :    6.94100000000000      amu
  | Found l_max for Hartree potential  :   6
  | Found cutoff potl. onset [A], width [A], scale factor :    5.00000    2.00000    1.00000
  | Threshold for basis-dependent cutoff potential is   0.100000E-03
  | Found data for basic radial integration grid :    29 points, outermost radius =    7.000 A
  | Found multiplier for basic radial grid :   2
  | Found angular grid specification: user-specified.
  | Specified grid contains     5 separate shells.
  | Check grid settings after all constraints further below.
  | Found free-atom valence shell :  2 s   1.000
  | Found free-ion valence shell :  1 s   2.000
  | Found hydrogenic basis function :  2 p   1.600
  | Found hydrogenic basis function :  2 s   2.000
  | Found hydrogenic basis function :  3 d   2.600
  | Found hydrogenic basis function :  3 p   4.600
  | Found hydrogenic basis function :  2 p   1.800
  | Found hydrogenic basis function :  3 s   6.200
  | Found hydrogenic basis function :  4 d   4.700
  | Found hydrogenic basis function :  4 f   4.100
  Species Li                  : Missing cutoff potential type.
  Defaulting to exp(1/x)/(1-x)^2 type cutoff potential.
  Species Li: No 'logarithmic' tag. Using default grid for free atom:
  | Default logarithmic grid data [bohr] : 0.1000E-03 0.1000E+03 0.1012E+01
  Species Li: On-site basis accuracy parameter (for Gram-Schmidt orthonormalisation) not specified.
  Using default value basis_acc =  0.1000000E-03.
  Species Li                  : Using default innermost maximum threshold i_radial=  2 for radial functions.
  Species Li                  : Default cutoff onset for free atom density etc. : 0.50000000E+01 AA.
  Species Li                  : Basic radial grid will be enhanced according to radial_multiplier =   2, to contain    59 grid points.
 
  Reading configuration options for species P                   .
  | Found nuclear charge :  15.0000
  | Found atomic mass :    30.9737620000000      amu
  | Found l_max for Hartree potential  :   6
  | Found cutoff potl. onset [A], width [A], scale factor :    4.00000    2.00000    1.00000
  | Threshold for basis-dependent cutoff potential is   0.100000E-03
  | Found data for basic radial integration grid :    43 points, outermost radius =    7.000 A
  | Found multiplier for basic radial grid :   2
  | Found angular grid specification: user-specified.
  | Specified grid contains     6 separate shells.
  | Check grid settings after all constraints further below.
  | Found free-atom valence shell :  3 s   2.000
  | Found free-atom valence shell :  3 p   3.000
  | Found free-ion valence shell :  3 s   1.000
  | Found free-ion valence shell :  3 p   2.000
  | Found ionic basis function :  3 d , default cutoff radius.
  | Found ionic basis function :  3 p , default cutoff radius.
  | Found hydrogenic basis function :  4 f   6.200
  | Found hydrogenic basis function :  5 g   8.600
  | Found ionic basis function :  3 s , default cutoff radius.
  | Found hydrogenic basis function :  4 d   6.200
  Species P                   : Missing cutoff potential type.
  Defaulting to exp(1/x)/(1-x)^2 type cutoff potential.
  Species P : No 'logarithmic' tag. Using default grid for free atom:
  | Default logarithmic grid data [bohr] : 0.1000E-03 0.1000E+03 0.1012E+01
  | Will include ionic basis functions of  2.0-fold positive P                    ion.
  Species P : On-site basis accuracy parameter (for Gram-Schmidt orthonormalisation) not specified.
  Using default value basis_acc =  0.1000000E-03.
  Species P                   : Using default innermost maximum threshold i_radial=  2 for radial functions.
  Species P                   : Default cutoff onset for free atom density etc. : 0.40000000E+01 AA.
  Species P                   : Basic radial grid will be enhanced according to radial_multiplier =   2, to contain    87 grid points.
 
  Reading configuration options for species S                   .
  | Found nuclear charge :  16.0000
  | Found atomic mass :    32.0650000000000      amu
  | Found l_max for Hartree potential  :   6
  | Found cutoff potl. onset [A], width [A], scale factor :    4.00000    2.00000    1.00000
  | Threshold for basis-dependent cutoff potential is   0.100000E-03
  | Found data for basic radial integration grid :    44 points, outermost radius =    7.000 A
  | Found multiplier for basic radial grid :   2
  | Found angular grid specification: user-specified.
  | Specified grid contains     5 separate shells.
  | Check grid settings after all constraints further below.
  | Found free-atom valence shell :  3 s   2.000
  | Found free-atom valence shell :  3 p   4.000
  | Found free-ion valence shell :  3 s   1.000
  | Found free-ion valence shell :  3 p   3.000
  | Found ionic basis function :  3 d , default cutoff radius.
  | Found hydrogenic basis function :  2 p   1.800
  | Found hydrogenic basis function :  4 f   7.000
  | Found ionic basis function :  3 s , default cutoff radius.
  | Found hydrogenic basis function :  4 d   6.200
  | Found hydrogenic basis function :  5 g  10.800
  Species S                   : Missing cutoff potential type.
  Defaulting to exp(1/x)/(1-x)^2 type cutoff potential.
  Species S : No 'logarithmic' tag. Using default grid for free atom:
  | Default logarithmic grid data [bohr] : 0.1000E-03 0.1000E+03 0.1012E+01
  | Will include ionic basis functions of  2.0-fold positive S                    ion.
  Species S : On-site basis accuracy parameter (for Gram-Schmidt orthonormalisation) not specified.
  Using default value basis_acc =  0.1000000E-03.
  Species S                   : Using default innermost maximum threshold i_radial=  2 for radial functions.
  Species S                   : Default cutoff onset for free atom density etc. : 0.40000000E+01 AA.
  Species S                   : Basic radial grid will be enhanced according to radial_multiplier =   2, to contain    89 grid points.
 
  Reading configuration options for species Cl                  .
  | Found nuclear charge :  17.0000
  | Found atomic mass :    35.4530000000000      amu
  | Found l_max for Hartree potential  :   6
  | Found cutoff potl. onset [A], width [A], scale factor :    4.00000    2.00000    1.00000
  | Threshold for basis-dependent cutoff potential is   0.100000E-03
  | Found data for basic radial integration grid :    45 points, outermost radius =    7.000 A
  | Found multiplier for basic radial grid :   2
  | Found angular grid specification: user-specified.
  | Specified grid contains     5 separate shells.
  | Check grid settings after all constraints further below.
  | Found free-atom valence shell :  3 s   2.000
  | Found free-atom valence shell :  3 p   5.000
  | Found free-ion valence shell :  3 s   1.000
  | Found free-ion valence shell :  3 p   4.000
  | Found ionic basis function :  3 d , default cutoff radius.
  | Found hydrogenic basis function :  2 p   1.900
  | Found hydrogenic basis function :  4 f   7.400
  | Found ionic basis function :  3 s , default cutoff radius.
  | Found hydrogenic basis function :  5 g  10.400
  | Found hydrogenic basis function :  3 d   3.300
  Species Cl                  : Missing cutoff potential type.
  Defaulting to exp(1/x)/(1-x)^2 type cutoff potential.
  Species Cl: No 'logarithmic' tag. Using default grid for free atom:
  | Default logarithmic grid data [bohr] : 0.1000E-03 0.1000E+03 0.1012E+01
  | Will include ionic basis functions of  2.0-fold positive Cl                   ion.
  Species Cl: On-site basis accuracy parameter (for Gram-Schmidt orthonormalisation) not specified.
  Using default value basis_acc =  0.1000000E-03.
  Species Cl                  : Using default innermost maximum threshold i_radial=  2 for radial functions.
  Species Cl                  : Default cutoff onset for free atom density etc. : 0.40000000E+01 AA.
  Species Cl                  : Basic radial grid will be enhanced according to radial_multiplier =   2, to contain    91 grid points.
 
  Finished reading input file 'control.in'. Consistency checks are next.
 
  MPI_IN_PLACE appears to work with this MPI implementation.
  | Keeping use_mpi_in_place .true. (see manual).
  Target number of points in a grid batch is not set. Defaulting to  100
  Method for grid partitioning is not set. Defaulting to parallel hash+maxmin partitioning.
  Batch size limit is not set. Defaulting to    200
  By default, will store active basis functions for each batch.
  If in need of memory, prune_basis_once .false. can be used to disable this option.
  communication_type for Hartree potential was not specified.
  Defaulting to calc_hartree .
  Defaulting to Pulay charge density mixer.
  Pulay mixer: Number of relevant iterations not set.
  Defaulting to    8 iterations.
  Pulay mixer: Number of initial linear mixing iterations not set.
  Defaulting to    0 iterations.
  Work space size for distributed Hartree potential not set.
  Defaulting to   0.200000E+03 MB.
  Mixing parameter for charge density mixing has not been set.
  Using default: charge_mix_param =     0.0500.
  The mixing parameter will be adjusted in iteration number     2 of the first full s.c.f. cycle only.
  Algorithm-dependent basis array size parameters:
  | n_max_pulay                         :        8
  Maximum number of self-consistency iterations not provided.
  Presetting  1000 iterations.
  Presetting      1001 iterations before the initial mixing cycle
  is restarted anyway using the sc_init_iter criterion / keyword.
  Presetting a factor      1.000 between actual scf density residual
  and density convergence criterion sc_accuracy_rho below which sc_init_iter
  takes no effect.
  Geometry relaxation not requested: no relaxation will be performed.
  Handling of forces: Unphysical translation and rotation will be removed from forces.
  No accuracy limit for integral partition fn. given. Defaulting to  0.1000E-14.
  No threshold value for u(r) in integrations given. Defaulting to  0.1000E-05.
  No occupation type (smearing scheme) given. Defaulting to Gaussian broadening, width =  0.1000E-01 eV.
  The width will be adjusted in iteration number     2 of the first full s.c.f. cycle only.
  S.C.F. convergence parameters will be adjusted in iteration number     2 of the first full s.c.f. cycle only.
  No accuracy for occupation numbers given. Defaulting to  0.1000E-12.
  No threshold value for occupation numbers given. Defaulting to  0.0000E+00.
  No accuracy for fermi level given. Defaulting to  0.1000E-19.
  Maximum # of iterations to find E_F not set. Defaulting to  200.
  Preferred method for the eigenvalue solver ('KS_method') not specified in 'control.in'.
  Calling BLACS routine to test compilation state
  Since ScaLAPACK support is enabled, defaulting to 'elsi'.
  Will not use alltoall communication since running on < 1024 CPUs.
  Threshold for basis singularities not set.
  Default threshold for basis singularities:  0.1000E-04
  partition_type (choice of integration weights) for integrals was not specified.
  | Using a version of the partition function of Stratmann and coworkers ('stratmann_smoother').
  | At each grid point, the set of atoms used to build the partition table is smoothly restricted to
  | only those atoms whose free-atom density would be non-zero at that grid point.
  Partitioning for Hartree potential was not defined. Using partition_type for integrals.
  | Adjusted default value of keyword multip_moments_threshold to:       0.10000000E-11
  | This value may affect high angular momentum components of the Hartree potential in periodic systems.
  Spin handling was not defined in control.in. Defaulting to unpolarized case.
  Angular momentum expansion for Kerker preconditioner not set explicitly.
  | Using default value of   0
  No explicit requirement for turning off preconditioner.
  | By default, it will be turned off when the charge convergence reaches
  | sc_accuracy_rho  =   0.100000E-05
  | sc_accuracy_eev  =   0.100000E-02
  | sc_accuracy_etot =   0.100000E-05
  No special mixing parameter while Kerker preconditioner is on.
  Using default: charge_mix_param =     0.0500.
  No q(lm)/r^(l+1) cutoff set for long-range Hartree potential.
  | Using default value of  0.100000E-09 .
  | Verify using the multipole_threshold keyword.
  Defaulting to new monopole extrapolation.
  Density update method: automatic selection selected.
  Using density matrix based charge density update.
  Using density matrix based charge density update.
  Using packed matrix style: index .
  Defaulting to use time-reversal symmetry for k-point grid.
------------------------------------------------------------


------------------------------------------------------------
          Reading geometry description geometry.in.
------------------------------------------------------------
 * Warning! You did not set the 'relativistic' flag in input file 'control.in'.
 * Since you are not attempting to treat any elements beyond Ca(Z=20), FHI-aims
 * will default to 'relativistic none'.
 * You must ensure that this is really what you want!!
 * For example, DO NOT compute total-energy differences between results from
 * different settings of the 'relativistic' flag.
  Input structure read successfully.
  The structure contains      104 atoms,  and a total of       1344.000 electrons.

  Input geometry:
  | Unit cell:
  |       20.59247330        0.00000000        0.00000000
  |        0.00000000       17.09475601        0.00000000
  |        0.00000000        0.00000000        7.90314098
  | Atomic structure:
  |       Atom                x [A]            y [A]            z [A]
  |    1: Species Li            2.84220833        2.53001195        4.89799112
  |    2: Species Li            1.83848301        8.57819952        4.44569863
  |    3: Species Li            9.42704221        3.86643158        2.97842712
  |    4: Species Li            7.19215428        1.46759245        6.66066140
  |    5: Species Li            8.46442920        0.97508301        3.22788702
  |    6: Species Li            7.03242014        6.24883440        3.63843924
  |    7: Species Li           13.17559491        2.52339326        2.72392188
  |    8: Species Li           12.56277020        8.90089978        4.60283048
  |    9: Species Li           20.21106269        4.84022507        4.47282815
  |   10: Species Li           14.64675641        3.05771417        6.62580832
  |   11: Species Li           18.73796066        1.09105313        4.82013085
  |   12: Species Li           16.70612452        7.60692838        5.61681722
  |   13: Species Li            3.62425564       11.61650187        4.83542865
  |   14: Species Li            1.42643280       17.02839738        4.51611939
  |   15: Species Li            9.58486957       12.98298977        4.24926875
  |   16: Species Li            6.91085222        9.20199470        4.97070737
  |   17: Species Li            8.70578897        9.57298393        2.33116175
  |   18: Species Li            6.86897493       15.13943944        4.82497197
  |   19: Species Li           13.08448693       11.58551120        2.74272416
  |   20: Species Li           11.91957822       16.99286842        3.62614894
  |   21: Species Li            0.17345456       13.40989975        4.63986882
  |   22: Species Li           17.00616908       10.86283631        6.59789590
  |   23: Species Li           19.21146975        9.23169234        3.40084379
  |   24: Species Li           17.30658923       15.70339406        5.48264361
  |   25: Species P             9.54653949        7.50269930        4.70051359
  |   26: Species P             4.90616018        0.67498619        3.54388823
  |   27: Species P            20.02988636        8.32182122        6.64875903
  |   28: Species P            15.56683792        1.20298262        3.05784472
  |   29: Species P             9.68185621       16.35457188        5.52383674
  |   30: Species P             4.63532852        8.88995141        2.87140281
  |   31: Species P            20.03938527       16.71392904        6.78111668
  |   32: Species P            15.44850361        9.32452269        3.45071556
  |   33: Species S             1.25600840        0.76758734        7.03268035
  |   34: Species S             3.04505729        0.43365043        2.62215771
  |   35: Species S             5.72254605        2.72254557        2.40412531
  |   36: Species S             9.40456347        6.44336180        2.75273639
  |   37: Species S             8.15762407       16.12600009        6.93189482
  |   38: Species S             6.49155953        8.03484149        2.34657143
  |   39: Species S            11.33262112        6.76755580        5.73881241
  |   40: Species S             4.77168670        1.29062867        5.62625687
  |   41: Species S             0.38970976        2.75969335        2.37048169
  |   42: Species S             1.32585876        4.77799513        2.48385876
  |   43: Species S             7.49866912        2.29542060        1.37731951
  |   44: Species S             8.01899888        3.16809834        4.97336134
  |   45: Species S            11.64701284        4.85679588        4.61681919
  |   46: Species S             6.30434804        4.02833625        4.31424307
  |   47: Species S             3.23936012        4.70841517        3.51474869
  |   48: Species S             3.11162326        6.02233613        5.38264146
  |   49: Species S             0.40618263        2.30441925        4.41924745
  |   50: Species S             2.35324096        4.86571608        6.92284474
  |   51: Species S            10.31928858        1.25814376        5.32810639
  |   52: Species S            14.62951257        1.08531160        1.18857609
  |   53: Species S            16.58631854        3.30662221        3.12330400
  |   54: Species S            19.91606154        7.30239662        4.63744897
  |   55: Species S            18.26488729        0.56223977        7.27557645
  |   56: Species S            16.82619438        7.87657362        3.04058376
  |   57: Species S            20.14180625        6.70784923        0.18826342
  |   58: Species S            14.05601399        1.33044681        4.62026032
  |   59: Species S            10.70594267        1.76345022        0.38560429
  |   60: Species S            10.52843261        3.80560241        0.11642894
  |   61: Species S            17.93595570        3.49338921        4.73178517
  |   62: Species S            16.95260504        4.19317136        6.73577066
  |   63: Species S             0.16384361        4.92485153        6.97965363
  |   64: Species S            15.49153282        5.48759261        6.31963939
  |   65: Species S            12.63891608        4.55203944        7.89614851
  |   66: Species S            13.08384009        6.01638305        1.66556505
  |   67: Species S            10.81499410        1.74752681        2.53552246
  |   68: Species S            13.49328713        5.13202739        3.47337491
  |   69: Species S             1.12606957        9.62163565        6.88174253
  |   70: Species S             2.90140648        8.02116495        1.97042395
  |   71: Species S             4.88651369       10.96932945        2.14817627
  |   72: Species S             9.31156345       15.22632334        3.62599279
  |   73: Species S             7.86462667        7.25547249        5.94522084
  |   74: Species S             6.36125616       16.45404665        2.90247442
  |   75: Species S            11.69375005       15.81398737        6.23017917
  |   76: Species S             4.42759325        9.27839791        5.00585816
  |   77: Species S             1.33601110       11.55769960        2.11530307
  |   78: Species S             1.70989110       13.70089609        2.52999947
  |   79: Species S             6.93543104       11.64711756        2.41513195
  |   80: Species S             7.29850664       11.79765381        4.62843280
  |   81: Species S            11.57352430       13.64729544        5.81167045
  |   82: Species S             5.86358556       13.00078125        5.64654936
  |   83: Species S             3.57998767       13.91227246        3.70830414
  |   84: Species S             3.15464449       15.18076202        5.53828615
  |   85: Species S             0.93378152       10.92187191        4.09529586
  |   86: Species S             2.66526011       14.01714857        7.17204226
  |   87: Species S            10.11931942        9.57992690        4.68209735
  |   88: Species S            13.64407040        9.20782602        2.35442006
  |   89: Species S            16.23065648       11.26733805        2.67807017
  |   90: Species S            19.84200226       15.68724305        4.76483501
  |   91: Species S            18.20342488        9.01141054        7.46368499
  |   92: Species S            17.00103238       16.90754960        3.24996790
  |   93: Species S            20.03815540       15.11716163        0.30771358
  |   94: Species S            14.92064248        9.55506406        5.53821926
  |   95: Species S            10.88006018       12.79314536        0.86808511
  |   96: Species S            12.05629541       14.58123157        1.53100270
  |   97: Species S            18.29985980       11.51087277        2.90478687
  |   98: Species S            18.55925387       12.17739257        5.19518817
  |   99: Species S             0.50675886       13.54336898        7.16255220
  |  100: Species S            16.90436549       13.21735314        5.95093060
  |  101: Species S            14.07230781       13.91193316        1.81281656
  |  102: Species S            14.42927215       14.61164348        3.90071019
  |  103: Species S            10.61306232       11.50563753        2.45840836
  |  104: Species S            13.63577436       13.16530330        5.15457539

  Lattice parameters for 3D lattice (in Angstroms) :    20.592473   17.094756    7.903141
  Angle(s) between unit vectors (in degrees)      :    90.000000   90.000000   90.000000

  |

  | The smallest distance between any two atoms is         1.99585160 AA.
  |
  | The first atom of this pair is atom number                     62 .
  | The second atom of this pair is atom number                    64 .
  | Wigner-Seitz cell of the first atom image           0     0     0 .
  | (The Wigner-Seitz cell of the second atom is 0 0 0  by definition.)

  Symmetry information by spglib:
  | Precision set to  0.1E-04
  | Number of Operations  : 1
  | Space group           : 1
  | International         : P1 S
  | Schoenflies           : C1^1

  Quantities derived from the lattice vectors:
  | Reciprocal lattice vector 1:  0.305120  0.000000  0.000000
  | Reciprocal lattice vector 2:  0.000000  0.367550  0.000000
  | Reciprocal lattice vector 3:  0.000000  0.000000  0.795024
  | Unit cell volume                               :   0.278209E+04  A^3

  Range separation radius for Ewald summation (hartree_convergence_parameter):      4.31959080 bohr.

  Fractional coordinates:
                         L1                L2                L3
       atom_frac         0.13802171        0.14799930        0.61975247  Li
       atom_frac         0.08927937        0.50180298        0.56252301  Li
       atom_frac         0.45779067        0.22617647        0.37686625  Li
       atom_frac         0.34926131        0.08585045        0.84278661  Li
       atom_frac         0.41104481        0.05703989        0.40843090  Li
       atom_frac         0.34150440        0.36554101        0.46037889  Li
       atom_frac         0.63982576        0.14761212        0.34466320  Li
       atom_frac         0.61006612        0.52068013        0.58240521  Li
       atom_frac         0.98147815        0.28314093        0.56595576  Li
       atom_frac         0.71126747        0.17886855        0.83837658  Li
       atom_frac         0.90994221        0.06382385        0.60990065  Li
       atom_frac         0.81127334        0.44498608        0.71070695  Li
       atom_frac         0.17599905        0.67953599        0.61183631  Li
       atom_frac         0.06926962        0.99611819        0.57143348  Li
       atom_frac         0.46545500        0.75947207        0.53766835  Li
       atom_frac         0.33560088        0.53829342        0.62895340  Li
       atom_frac         0.42276558        0.55999535        0.29496649  Li
       atom_frac         0.33356726        0.88561893        0.61051321  Li
       atom_frac         0.63540143        0.67772311        0.34704229  Li
       atom_frac         0.57883179        0.99403983        0.45882377  Li
       atom_frac         0.00842320        0.78444523        0.58709174  Li
       atom_frac         0.82584393        0.63544846        0.83484477  Li
       atom_frac         0.93293649        0.54003066        0.43031546  Li
       atom_frac         0.84043276        0.91860884        0.69372970  Li
       atom_frac         0.46359363        0.43888894        0.59476525  P
       atom_frac         0.23825017        0.03948499        0.44841516  P
       atom_frac         0.97267997        0.48680550        0.84128058  P
       atom_frac         0.75594795        0.07037144        0.38691512  P
       atom_frac         0.47016481        0.95670110        0.69894195  P
       atom_frac         0.22509819        0.52003968        0.36332425  P
       atom_frac         0.97314125        0.97772259        0.85802805  P
       atom_frac         0.75020146        0.54546100        0.43662584  P
       atom_frac         0.06099357        0.04490192        0.88985890  S
       atom_frac         0.14787234        0.02536745        0.33178678  S
       atom_frac         0.27789503        0.15926203        0.30419871  S
       atom_frac         0.45669907        0.37692037        0.34830916  S
       atom_frac         0.39614591        0.94333023        0.87710631  S
       atom_frac         0.31523943        0.47001791        0.29691631  S
       atom_frac         0.55032831        0.39588490        0.72614324  S
       atom_frac         0.23171994        0.07549851        0.71190137  S
       atom_frac         0.01892486        0.16143508        0.29994172  S
       atom_frac         0.06438560        0.27950063        0.31428754  S
       atom_frac         0.36414611        0.13427630        0.17427495  S
       atom_frac         0.38941407        0.18532574        0.62928921  S
       atom_frac         0.56559563        0.28411028        0.58417523  S
       atom_frac         0.30614817        0.23564748        0.54588968  S
       atom_frac         0.15730797        0.27543038        0.44472808  S
       atom_frac         0.15110488        0.35229144        0.68107623  S
       atom_frac         0.01972481        0.13480270        0.55917609  S
       atom_frac         0.11427675        0.28463209        0.87596118  S
       atom_frac         0.50111943        0.07359823        0.67417580  S
       atom_frac         0.71043009        0.06348798        0.15039288  S
       atom_frac         0.80545539        0.19342904        0.39519781  S
       atom_frac         0.96715248        0.42717174        0.58678555  S
       atom_frac         0.88696909        0.03288960        0.92059302  S
       atom_frac         0.81710410        0.46075964        0.38473105  S
       atom_frac         0.97811496        0.39239222        0.02382134  S
       atom_frac         0.68258017        0.07782777        0.58461064  S
       atom_frac         0.51989591        0.10315738        0.04879127  S
       atom_frac         0.51127577        0.22261812        0.01473198  S
       atom_frac         0.87099570        0.20435444        0.59872210  S
       atom_frac         0.82324278        0.24528992        0.85229033  S
       atom_frac         0.00795648        0.28809136        0.88314933  S
       atom_frac         0.75229102        0.32101029        0.79963642  S
       atom_frac         0.61376387        0.26628280        0.99911523  S
       atom_frac         0.63537002        0.35194319        0.21074723  S
       atom_frac         0.52519161        0.10222590        0.32082465  S
       atom_frac         0.65525335        0.30021062        0.43949297  S
       atom_frac         0.05468355        0.56284136        0.87076044  S
       atom_frac         0.14089645        0.46921787        0.24932162  S
       atom_frac         0.23729610        0.64167804        0.27181298  S
       atom_frac         0.45218286        0.89070141        0.45880401  S
       atom_frac         0.38191754        0.42442679        0.75226051  S
       atom_frac         0.30891171        0.96252012        0.36725581  S
       atom_frac         0.56786525        0.92507827        0.78831685  S
       atom_frac         0.21501027        0.54276282        0.63340110  S
       atom_frac         0.06487861        0.67609620        0.26765347  S
       atom_frac         0.08303476        0.80146778        0.32012582  S
       atom_frac         0.33679447        0.68132693        0.30559140  S
       atom_frac         0.35442594        0.69013292        0.58564472  S
       atom_frac         0.56202692        0.79833227        0.73536211  S
       atom_frac         0.28474411        0.76051283        0.71446902  S
       atom_frac         0.17384933        0.81383276        0.46921903  S
       atom_frac         0.15319405        0.88803619        0.70077026  S
       atom_frac         0.04534577        0.63890189        0.51818585  S
       atom_frac         0.12942885        0.81996775        0.90749264  S
       atom_frac         0.49140865        0.56040150        0.59243500  S
       atom_frac         0.66257560        0.53863454        0.29790941  S
       atom_frac         0.78818393        0.65911078        0.33886150  S
       atom_frac         0.96355605        0.91766405        0.60290396  S
       atom_frac         0.88398439        0.52714473        0.94439477  S
       atom_frac         0.82559448        0.98904890        0.41122484  S
       atom_frac         0.97308153        0.88431573        0.03893561  S
       atom_frac         0.72456777        0.55894709        0.70076180  S
       atom_frac         0.52835131        0.74836665        0.10984052  S
       atom_frac         0.58547097        0.85296518        0.19372079  S
       atom_frac         0.88866740        0.67335695        0.36754841  S
       atom_frac         0.90126395        0.71234667        0.65735739  S
       atom_frac         0.02460894        0.79225284        0.90629184  S
       atom_frac         0.82090020        0.77318174        0.75298297  S
       atom_frac         0.68337142        0.81381291        0.22937925  S
       atom_frac         0.70070612        0.85474420        0.49356455  S
       atom_frac         0.51538551        0.67305070        0.31106725  S
       atom_frac         0.66217273        0.77013695        0.65221858  S

  Number of empty states per atom not set in control.in - providing a guess from actual geometry.
  | Total number of empty states used during s.c.f. cycle:      276
  If you use a very high smearing, use empty_states (per atom!) in control.in to increase this value.

  Structure-dependent array size parameters: 
  | Maximum number of distinct radial functions  :       43
  | Maximum number of basis functions            :     3840
  | Number of Kohn-Sham states (occupied + empty):      948
------------------------------------------------------------

------------------------------------------------------------
          Preparing all fixed parts of the calculation.
------------------------------------------------------------
  Determining machine precision:
    2.225073858507201E-308
  Setting up grids for atomic and cluster calculations.

  Creating wave function, potential, and density for free atoms.

  Species: Li

  List of occupied orbitals and eigenvalues:
    n    l              occ      energy [Ha]    energy [eV]
    1    0           2.0000        -1.901473       -51.7417
    2    0           1.0000        -0.103132        -2.8064


  Species: P

  List of occupied orbitals and eigenvalues:
    n    l              occ      energy [Ha]    energy [eV]
    1    0           2.0000       -76.356288     -2077.7603
    2    0           2.0000        -6.358286      -173.0178
    3    0           2.0000        -0.509419       -13.8620
    2    1           6.0000        -4.573976      -124.4642
    3    1           3.0000        -0.201560        -5.4847


  Species: S

  List of occupied orbitals and eigenvalues:
    n    l              occ      energy [Ha]    energy [eV]
    1    0           2.0000       -88.108280     -2397.5483
    2    0           2.0000        -7.732485      -210.4116
    3    0           2.0000        -0.629532       -17.1304
    2    1           6.0000        -5.750324      -156.4743
    3    1           4.0000        -0.257562        -7.0086


  Species: Cl

  List of occupied orbitals and eigenvalues:
    n    l              occ      energy [Ha]    energy [eV]
    1    0           2.0000      -100.710795     -2740.4802
    2    0           2.0000        -9.222997      -250.9705
    3    0           2.0000        -0.754245       -20.5241
    2    1           6.0000        -7.039872      -191.5647
    3    1           5.0000        -0.316221        -8.6048

  Creating fixed part of basis set: Ionic, confined, hydrogenic.
 
  Li                   hydrogenic:
 
  List of hydrogenic basis orbitals: 
    n    l      effective z      eigenvalue [eV]  inner max. [A]     outer max. [A]     outer radius [A]   
    2    1         1.600000        -8.7048           1.319365           1.319365           6.386418
    2    0         2.000000       -13.6052           0.203259           1.385485           6.232164
    3    2         2.600000       -10.2084           1.835332           1.835332           6.386418
    3    1         4.600000       -31.9883           0.343834           1.385485           5.381805
    2    1         1.800000       -11.0199           1.181903           1.181903           6.386418
    3    0         6.200000       -58.1113           0.062858           1.111823           4.371906
    4    2         4.700000       -18.7772           0.761113           2.401695           6.386418
    4    3         4.100000       -14.2833           2.073992           2.073992           6.386418
 
 
  P                    ion:

  List of free ionic orbitals and eigenvalues:
    n    l      energy [Ha]    energy [eV]
    1    0       -77.297133     -2103.3620
    2    0        -7.273914      -197.9333
    3    0        -1.267536       -34.4914
    2    1        -5.491316      -149.4263
    3    1        -0.913470       -24.8568


  List of ionic basis orbitals and eigenvalues:
    n    l      energy [Ha]    energy [eV]    outer radius [A]
    3    2        -0.458060       -12.4644       5.404780
    3    1        -0.913461       -24.8565       4.724723
    3    0        -1.267529       -34.4912       4.232463

 
  P                    hydrogenic:
 
  List of hydrogenic basis orbitals: 
    n    l      effective z      eigenvalue [eV]  inner max. [A]     outer max. [A]     outer radius [A]   
    4    3         6.200000       -32.6870           1.357793           1.357793           5.339109
    5    4         8.600000       -40.2502           1.534356           1.534356           5.404780
    4    2         6.200000       -32.6848           0.577014           1.820771           5.404780
 
 
  S                    ion:

  List of free ionic orbitals and eigenvalues:
    n    l      energy [Ha]    energy [eV]
    1    0       -89.127201     -2425.2745
    2    0        -8.724378      -237.4024
    3    0        -1.464668       -39.8556
    2    1        -6.744348      -183.5230
    3    1        -1.048520       -28.5317


  List of ionic basis orbitals and eigenvalues:
    n    l      energy [Ha]    energy [eV]    outer radius [A]
    3    2        -0.496514       -13.5108       5.386362
    3    0        -1.464662       -39.8555       3.967934

 
  S                    hydrogenic:
 
  List of hydrogenic basis orbitals: 
    n    l      effective z      eigenvalue [eV]  inner max. [A]     outer max. [A]     outer radius [A]   
    2    1         1.800000       -11.0118           1.168531           1.168531           5.452614
    4    3         7.000000       -41.6672           1.212182           1.212182           5.066981
    4    2         6.200000       -32.6848           0.582121           1.814567           5.386362
    5    4        10.800000       -63.4785           1.227092           1.227092           4.766538
 
 
  Cl                   ion:

  List of free ionic orbitals and eigenvalues:
    n    l      energy [Ha]    energy [eV]
    1    0      -101.807232     -2770.3157
    2    0       -10.290876      -280.0290
    3    0        -1.664625       -45.2967
    2    1        -8.110237      -220.6908
    3    1        -1.183915       -32.2160


  List of ionic basis orbitals and eigenvalues:
    n    l      energy [Ha]    energy [eV]    outer radius [A]
    3    2        -0.529392       -14.4055       5.389057
    3    0        -1.664620       -45.2966       3.780461

 
  Cl                   hydrogenic:
 
  List of hydrogenic basis orbitals: 
    n    l      effective z      eigenvalue [eV]  inner max. [A]     outer max. [A]     outer radius [A]   
    2    1         1.900000       -12.2741           1.113321           1.113321           5.389057
    4    3         7.400000       -46.5653           1.140877           1.140877           4.886961
    5    4        10.400000       -58.8635           1.273568           1.273568           4.886961
    3    2         3.300000       -16.4532           1.439178           1.439178           5.455343
 

  Adding cutoff potential to free-atom effective potential.
  Creating atomic-like basis functions for current effective potential.

  Species Li                  :

  List of atomic basis orbitals and eigenvalues:
    n    l      energy [Ha]    energy [eV]    outer radius [A]
    1    0        -1.901473       -51.7417       4.318785
    2    0        -0.103132        -2.8064       6.464971


  Species P                   :

  List of atomic basis orbitals and eigenvalues:
    n    l      energy [Ha]    energy [eV]    outer radius [A]
    1    0       -76.356288     -2077.7603       0.736837
    2    0        -6.358286      -173.0178       2.532824
    3    0        -0.509419       -13.8620       5.274236
    2    1        -4.573976      -124.4642       2.862183
    3    1        -0.201560        -5.4847       5.404780


  Species S                   :

  List of atomic basis orbitals and eigenvalues:
    n    l      energy [Ha]    energy [eV]    outer radius [A]
    1    0       -88.108280     -2397.5483       0.682391
    2    0        -7.732485      -210.4116       2.317169
    3    0        -0.629532       -17.1304       5.256262
    2    1        -5.750324      -156.4743       2.555240
    3    1        -0.257562        -7.0086       5.386362


  Species Cl                  :

  List of atomic basis orbitals and eigenvalues:
    n    l      energy [Ha]    energy [eV]    outer radius [A]
    1    0      -100.710795     -2740.4802       0.642251
    2    0        -9.222997      -250.9705       2.128190
    3    0        -0.754245       -20.5241       5.194994
    2    1        -7.039872      -191.5647       2.346844
    3    1        -0.316221        -8.6048       5.323577

  Assembling full basis from fixed parts.
  | Species Li :   atomic orbital   1 s accepted.
  | Species Li :    hydro orbital   3 s accepted.
  | Species Li :    hydro orbital   2 s accepted.
  | Species Li :   atomic orbital   2 s accepted.
  | Species Li :    hydro orbital   3 p accepted.
  | Species Li :    hydro orbital   2 p accepted.
  | Species Li :    hydro orbital   2 p accepted.
  | Species Li :    hydro orbital   3 d accepted.
  | Species Li :    hydro orbital   4 d accepted.
  | Species Li :    hydro orbital   4 f accepted.
  | Species P :   atomic orbital   1 s accepted.
  | Species P :   atomic orbital   2 s accepted.
  | Species P :    ionic orbital   3 s accepted.
  | Species P :   atomic orbital   3 s accepted.
  | Species P :   atomic orbital   2 p accepted.
  | Species P :    ionic orbital   3 p accepted.
  | Species P :   atomic orbital   3 p accepted.
  | Species P :    ionic orbital   3 d accepted.
  | Species P :    hydro orbital   4 d accepted.
  | Species P :    hydro orbital   4 f accepted.
  | Species P :    hydro orbital   5 g accepted.
  | Species S :   atomic orbital   1 s accepted.
  | Species S :   atomic orbital   2 s accepted.
  | Species S :    ionic orbital   3 s accepted.
  | Species S :   atomic orbital   3 s accepted.
  | Species S :   atomic orbital   2 p accepted.
  | Species S :   atomic orbital   3 p accepted.
  | Species S :    hydro orbital   2 p accepted.
  | Species S :    ionic orbital   3 d accepted.
  | Species S :    hydro orbital   4 d accepted.
  | Species S :    hydro orbital   4 f accepted.
  | Species S :    hydro orbital   5 g accepted.
  | Species Cl :   atomic orbital   1 s accepted.
  | Species Cl :   atomic orbital   2 s accepted.
  | Species Cl :    ionic orbital   3 s accepted.
  | Species Cl :   atomic orbital   3 s accepted.
  | Species Cl :   atomic orbital   2 p accepted.
  | Species Cl :   atomic orbital   3 p accepted.
  | Species Cl :    hydro orbital   2 p accepted.
  | Species Cl :    ionic orbital   3 d accepted.
  | Species Cl :    hydro orbital   3 d accepted.
  | Species Cl :    hydro orbital   4 f accepted.
  | Species Cl :    hydro orbital   5 g accepted.
 
  Basis size parameters after reduction:
  | Total number of radial functions:       43
  | Total number of basis functions :     3840
 
  Per-task memory consumption for arrays in subroutine allocate_ext:
  |          11.342760MB.
  Testing on-site integration grid accuracy.
  |  Species  Function  <phi|h_atom|phi> (log., in eV)  <phi|h_atom|phi> (rad., in eV)
           1        1                -51.7417001117                -51.7417000312
           1        2                 33.5927188637                 33.5926505054
           1        3                 69.1469416012                 69.1473382425
           1        4                 48.8336153902                 48.8810182289 ***
           1        5                 17.1749490570                 17.1749098864
           1        6                 32.1201183828                 32.1217831653
           1        7                  6.0166019876                  6.0249480535
           1        8                  4.9175332206                  4.9194842525
           1        9                 28.8010599263                 28.8011051086
           1       10                  9.9331480983                  9.9353515081
           2       11              -2077.7602992527              -2077.7602630746
           2       12               -173.0177635265               -173.0177629291
           2       13                -13.5620523038                -13.5620521963
           2       14                  6.3015351439                  6.3015396353
           2       15               -124.4642131574               -124.4642129967
           2       16                 -4.8468074573                 -4.8468065719
           2       17                  5.8113348591                  5.8108493787
           2       18                  5.1218113540                  5.1217878152
           2       19                 22.1386653152                 22.1386624883
           2       20                 19.3047268689                 19.3047231214
           2       21                 30.3235883931                 30.3235836780
           3       22              -2397.5482725833              -2397.5482291499
           3       23               -210.4116306505               -210.4116300246
           3       24                -16.8591546483                -16.8591544436
           3       25                  7.5848976656                  7.5849001027
           3       26               -156.4742745766               -156.4742744285
           3       27                 -7.0089268331                 -7.0089287934
           3       28                  6.8790437028                  6.8789536772
           3       29                  6.0023049431                  6.0023019693
           3       30                 19.5634804122                 19.5634829634
           3       31                 24.6809503130                 24.6809503093
           3       32                 47.5107032033                 47.5107040524
           4       33              -2740.4801671239              -2740.4801157382
           4       34               -250.9705040601               -250.9705032686
           4       35                -20.2716828479                -20.2716826054
           4       36                  9.0161300765                  9.0161279813
           4       37               -191.5646602865               -191.5646600866
           4       38                 -8.6049187754                 -8.6049181478
           4       39                  7.6458046208                  7.6458222053
           4       40                  6.9765726558                  6.9765744583
           4       41                 16.6546700656                 16.6546956458
           4       42                 28.0343243807                 28.0343233726
           4       43                 45.0370063060                 45.0370052039
 * Note: Onsite integrals marked "***" above are less accurate than
 * onsite_accuracy_threshold =    0.03000 eV. Usually, this is harmless.
 * When in doubt, tighten the "radial" and/or "radial_multiplier" flags to check.

  Preparing densities etc. for the partition functions (integrals / Hartree potential).

  Preparations completed.
  max(cpu_time)          :      0.463 s.
  Wall clock time (cpu1) :      0.465 s.
------------------------------------------------------------

------------------------------------------------------------
          Begin self-consistency loop: Initialization.

          Date     :  20220704, Time     :  073539.255
------------------------------------------------------------

  Initializing index lists of integration centers etc. from given atomic structure:
  Mapping all atomic coordinates to central unit cell.

  Initializing the k-points
          Using symmetry for reducing the k-points
  | k-points reduced from:        2 to        2
  | Number of k-points                             :         2
  The eigenvectors in the calculations are REAL.
  | Number of basis functions in the Hamiltonian integrals :     18684
  | Number of basis functions in a single unit cell        :      3840
  | Number of centers in hartree potential         :      2717
  | Number of centers in hartree multipole         :      1745
  | Number of centers in electron density summation:      1428
  | Number of centers in basis integrals           :      1500
  | Number of centers in integrals                 :       615
  | Number of centers in hamiltonian               :      1757
  | Consuming          1 KiB for k_phase.
  | Number of super-cells (origin) [n_cells]                     :         175
  | Number of super-cells (after PM_index) [n_cells]             :          46
  | Number of super-cells in hamiltonian [n_cells_in_hamiltonian]:          46
  | Size of matrix packed + index [n_hamiltonian_matrix_size] :    13546773
  Using simple linear distribution as default method for k-point parallelism.
  * Using 20 tasks for Scalapack Eigenvalue solver.
  Detailed listing of tasks and assigned k-points:
   Task     0 k-point     1 on node042
   Task     1 k-point     1 on node042
   Task     2 k-point     1 on node042
   Task     3 k-point     1 on node042
   Task     4 k-point     1 on node042
   Task     5 k-point     1 on node042
   Task     6 k-point     1 on node042
   Task     7 k-point     1 on node042
   Task     8 k-point     1 on node042
   Task     9 k-point     1 on node042
   Task    10 k-point     2 on node042
   Task    11 k-point     2 on node042
   Task    12 k-point     2 on node042
   Task    13 k-point     2 on node042
   Task    14 k-point     2 on node042
   Task    15 k-point     2 on node042
   Task    16 k-point     2 on node042
   Task    17 k-point     2 on node042
   Task    18 k-point     2 on node042
   Task    19 k-point     2 on node042
  K-point:     1 Tasks:    10 split into      5 X      2 BLACS grid
  Calculating block size based on n_basis =         3840 max_nprow =            5 max_npcol =            2
  ScaLAPACK block size set to:           16
  Allocating       11.796 MB for ovlp
  Allocating       11.796 MB for ham
  Allocating       11.796 MB for eigenvec
  Required Scalapack workspace - INTEGER:            1 REAL:             1
  Partitioning the integration grid into batches with parallel hashing+maxmin method.
  | Number of batches:    27228
  | Maximal batch size:     136
  | Minimal batch size:      52
  | Average batch size:      85.650
  | Standard deviation of batch sizes:      23.331

  Integration load balanced across    20 MPI tasks.
  Work distribution over tasks is as follows:
  Task     0 has     116633 integration points.
  Task     1 has     116593 integration points.
  Task     2 has     116626 integration points.
  Task     3 has     116548 integration points.
  Task     4 has     116545 integration points.
  Task     5 has     116593 integration points.
  Task     6 has     116556 integration points.
  Task     7 has     116616 integration points.
  Task     8 has     116651 integration points.
  Task     9 has     116632 integration points.
  Task    10 has     116552 integration points.
  Task    11 has     116618 integration points.
  Task    12 has     116624 integration points.
  Task    13 has     116617 integration points.
  Task    14 has     116620 integration points.
  Task    15 has     116547 integration points.
  Task    16 has     116636 integration points.
  Task    17 has     116623 integration points.
  Task    18 has     116636 integration points.
  Task    19 has     116614 integration points.
  Initializing partition tables, free-atom densities, potentials, etc. across the integration grid (initialize_grid_storage).
  | initialize_grid_storage: Actual outermost partition radius vs. multipole_radius_free
  | (-- VB: in principle, multipole_radius_free should be larger, hence this output)
  | Species        1: Confinement radius =              7.000000000000000 AA, multipole_radius_free =              7.042572113910259 AA.
  | Species        1: outer_partition_radius set to              7.042572113910259 AA .
  | Species        2: Confinement radius =              6.000000000000000 AA, multipole_radius_free =              6.033387558927091 AA.
  | Species        2: outer_partition_radius set to              6.033387558927091 AA .
  | Species        3: Confinement radius =              6.000000000000000 AA, multipole_radius_free =              6.012827091137924 AA.
  | Species        3: outer_partition_radius set to              6.012827091137924 AA .
  | Species        4: Confinement radius =              6.000000000000000 AA, multipole_radius_free =              6.015836048499353 AA.
  | Species        4: outer_partition_radius set to              6.015836048499353 AA .
  | Original list of interatomic distances with        1500 x       1500 entries is created.
  | Net number of integration points:  2332080
  | of which are non-zero points    :  1923344
  | Numerical average free-atom electrostatic potential    :     -8.48836161 eV
  Renormalizing the initial density to the exact electron count on the 3D integration grid.
  | Initial density: Formal number of electrons (from input files) :    1344.0000000000
  | Integrated number of electrons on 3D grid     :    1344.0000806717
[...]
  | Total energy evaluation                    :        0.004 s           0.006 s

  Partial memory accounting:
  | Current value for overall tracked memory usage on task 0  :         209.058 MB
  | Peak value for overall tracked memory usage on task 0     :         425.806 MB after allocating temp_ham_ovlp
  | Largest tracked array allocation on task 0 so far         :         108.374 MB  when allocating overlap_matrix
  Note:  These values currently only include a subset of arrays which are explicitly tracked.
  The "true" memory usage will be greater.
------------------------------------------------------------
  |------------------------------------------
  | Final ELSI Output
  |------------------------------------------
  | Number of basis functions :         3840
  | Number of electrons       :       1344.0
  | Number of spins           :            1
  | Number of k-points        :            2
  | Number of states          :          948
  | Solver                    :         ELPA
  | Parallel mode             :   MULTI_PROC
  | Matrix format             :  BLACS_DENSE
  | Matrix sparsity           :        0.214
  |------------------------------------------
  | ELSI Project (c)  elsi-interchange.org
  |------------------------------------------
  Removing unitary transformations (pure translations, rotations) from forces on atoms.
  Atomic forces before filtering:
  | Net force on center of mass :   0.223387E-03 -0.176551E-02  0.288545E-02 eV/A
  Atomic forces after filtering:
  | Net force on center of mass :   0.182866E-14 -0.535218E-15  0.172761E-14 eV/A

  Energy and forces in a compact form:
  | Total energy uncorrected      :         -0.859137370359936E+06 eV
  | Total energy corrected        :         -0.859137370359936E+06 eV  <-- do not rely on this value for anything but (periodic) metals
  | Electronic free energy        :         -0.859137370359936E+06 eV
  Total atomic forces (unitary forces cleaned) [eV/Ang]:
  |   1         -0.143461443541152E+00         -0.636535880975223E-01         -0.424749553239106E-01
  |   2          0.520355729365885E-01          0.810195610279966E-01          0.136712670871878E-01
  |   3         -0.134236860431484E-01          0.187977501436733E-01          0.429945155100216E-01
  |   4         -0.671861395887667E-01         -0.440735002274496E-01         -0.437485796557700E-01
  |   5          0.294386519862684E-01         -0.124621115352939E+00         -0.637127132730115E-01
  |   6          0.260212366456482E+00         -0.133790037050940E+00          0.249871340775840E+00
  |   7         -0.165724578998857E+00         -0.456886210071995E-01         -0.236489540125588E+00
  |   8          0.930716596056666E-01         -0.335497409188595E-01         -0.680181450696388E-01
  |   9          0.267169258290496E-02         -0.415685073452112E-02          0.169204442331627E-01
  |  10          0.189586245279559E+00          0.212765519540511E-01         -0.577438075280710E-01
  |  11         -0.620816385742856E-01          0.920510797445950E-03         -0.175155442342683E+00
  |  12         -0.125940853367930E-01          0.324961328356810E-01          0.791153117888479E-01
  |  13          0.133811762195436E+00         -0.557686151124653E-01         -0.921269916543461E-01
  |  14         -0.545577404758926E-01          0.102620150781373E+00          0.103142823434155E+00
  |  15          0.641181623749721E-01         -0.175723630440296E+00         -0.189267495157940E+00
  |  16         -0.238507220764461E+00          0.917872055066741E-01         -0.431060418173381E-01
  |  17         -0.340212439983963E-01          0.242810441013483E-01          0.112891378072616E+00
  |  18          0.109508862660963E+00         -0.682136834603781E-01          0.250888664109864E+00
  |  19         -0.129254860765644E+00         -0.682059547851433E-01         -0.108430738226658E+00
  |  20          0.122165649930557E+00          0.546166267652581E-01          0.200972497068343E+00
  |  21         -0.749007068497393E-01         -0.442046033793289E-01          0.287932975266249E-02
  |  22         -0.141918062841434E+00          0.570023374871115E-01         -0.220428228345308E+00
  |  23         -0.862190097460501E-01          0.153768809057071E-02          0.638569212124340E-02
  |  24          0.226889950583611E+00          0.140295921529958E-01          0.231837481417447E-01
  |  25         -0.457870185534853E+00         -0.827129692551555E-02         -0.336279310642359E+00
  |  26         -0.511030094314019E+00         -0.241062796727568E+00          0.254374320784225E+00
  |  27          0.600727755920627E+00          0.735073749204851E+00         -0.388600429371344E+00
  |  28         -0.676219054778368E+00          0.379880877785733E+00         -0.137706695727531E+00
  |  29         -0.297352799865579E+00          0.514783825088615E-01         -0.272387391643931E+00
  |  30         -0.730691895805401E+00         -0.525243120659624E+00         -0.724591646573396E-02
  |  31          0.596289518843695E+00          0.604931627947585E+00         -0.446723813529792E+00
  |  32         -0.237980432501766E+00         -0.424324320714766E+00          0.243730870936479E+00
  |  33         -0.178332644480666E+01         -0.139777823029725E+01         -0.513576493763417E+00
  |  34          0.142857625870887E+01          0.457247729844056E+00          0.951228120299827E+00
  |  35          0.863327915330516E+00          0.259717727964211E+00         -0.236454116304750E+00
  |  36         -0.105406425339891E+00          0.138637058767331E+01          0.170382231854332E+01
  |  37          0.919245576985678E+00          0.115231740297220E+00         -0.127229347986391E+01
  |  38         -0.763665595296194E+00          0.665426186616853E+00          0.331261895568644E+00
  |  39         -0.146669309508717E+00         -0.138242363609139E+01         -0.122154287707287E+01
  |  40          0.224936769140823E+00         -0.766486923511422E+00         -0.168209728175706E+01
  |  41          0.776141465830155E+00          0.145062532702759E+01          0.691414509273112E+00
  |  42          0.149483783520474E+00         -0.712861424561998E+00          0.710815767949505E-01
  |  43         -0.114328936588804E+01          0.367820632312191E+00          0.910363174820069E+00
  |  44         -0.304308345652754E-01         -0.857014934736441E-01         -0.154493247206503E+00
  |  45          0.833277633286256E+00          0.118801326530363E+01          0.571601496451417E+00
  |  46         -0.115382564113831E+00         -0.498538244665159E+00         -0.732745021264092E+00
  |  47         -0.874465611772198E+00          0.340922584874155E+00          0.579623327767955E+00
  |  48         -0.465669647753395E+00         -0.118649870275852E+01         -0.567735666286424E+00
  |  49         -0.169270608766042E-02         -0.175335187287243E+00         -0.236756652575966E+00
  |  50         -0.481249909731730E+00          0.271016415550847E+00         -0.391579412305613E+00
  |  51         -0.353231966146814E+00         -0.137886692835093E+01         -0.273612714835188E-01
  |  52          0.380690183448736E+00          0.631985978519356E+00          0.140056841248974E+01
  |  53          0.181608673960503E+00         -0.308718882416926E+00          0.560944645135954E+00
  |  54          0.311563689873117E+00          0.114651054431059E+01          0.153648143799796E+01
  |  55          0.892497600259979E+00         -0.623037114129216E+00         -0.735946126723549E+00
  |  56         -0.585604774425172E+00          0.789121075061336E+00          0.623683305613085E+00
  |  57          0.388437653399559E+00         -0.129177977704515E+01         -0.104932809355412E+01
  |  58          0.863744557291557E+00         -0.512535770347646E-01         -0.785865854935456E+00
  |  59          0.385911591606264E-01          0.985632963304863E+00          0.830207787419520E+00
  |  60          0.990509165092432E+00         -0.128567960536998E+00         -0.324905721460457E+00
  |  61         -0.106803016120260E+01         -0.153537516918359E+00         -0.400440259691587E+00
  |  62          0.302467408518750E+00         -0.605631351728674E+00         -0.534541602436393E+00
  |  63          0.636321203357263E+00          0.116178301874511E+01          0.835385981571596E+00
  |  64         -0.211908267273516E+00          0.180520740574248E+00         -0.726143373473747E-01
  |  65         -0.618025808991465E+00          0.452166741767640E+00          0.114407326263973E+01
  |  66         -0.217016464694534E+00         -0.913182401858857E+00         -0.750703663206330E+00
  |  67         -0.694243270783700E-02         -0.211447272818879E+00         -0.521968845184737E+00
  |  68         -0.943231666866781E+00         -0.103067906414818E+00          0.339151230110625E-01
  |  69         -0.192073856189835E+01         -0.160757558866284E+01         -0.533918408666210E+00
  |  70          0.188145738610027E+01          0.124930547268241E+01          0.129326257740856E+01
  |  71          0.774338908200403E+00          0.423452053438441E+00         -0.513023058047412E-01
  |  72          0.366742170053252E+00          0.145778438352624E+01          0.180081897169774E+01
  |  73          0.112799109012887E+01         -0.620652095333129E-01         -0.110656306853023E+01
  |  74         -0.734480066723560E+00          0.974957741091667E+00          0.693094387202028E+00
  |  75         -0.962088016690388E+00         -0.124286754111071E+01         -0.830468908925869E+00
  |  76          0.134901736261929E+00         -0.560689165718312E+00         -0.135883827407936E+01
  |  77          0.346731654694447E+00          0.144201064168324E+01          0.101769291911052E+01
  |  78          0.365549313706029E+00         -0.738944066476516E+00          0.207382886021472E-01
  |  79         -0.115325187872562E+01         -0.456325836035144E+00          0.680704857775585E+00
  |  80         -0.827481989540078E+00          0.465782567322040E+00          0.628013481388305E-01
  |  81          0.105914505322318E+01          0.783127917435295E+00         -0.501966223798191E-02
  |  82          0.994578643586229E+00         -0.724300520354482E+00         -0.899057542265343E+00
  |  83         -0.973413847733392E+00          0.784448872558782E-01          0.395680952557882E+00
  |  84         -0.220429065493545E+00         -0.953732989290310E+00         -0.601007272531639E+00
  |  85          0.137434544132244E-01         -0.867087083320194E-01         -0.289456253783724E+00
  |  86         -0.758174587842731E+00         -0.818593497087022E-01         -0.432573242009456E+00
  |  87         -0.580426313966546E+00         -0.150206426836388E+01         -0.282817229888235E+00
  |  88          0.950497750079696E+00          0.452809153790552E+00          0.795988007508223E+00
  |  89          0.668588674123797E+00          0.603653733338713E-01          0.370521113530217E-01
  |  90          0.230796155524155E+00          0.130332831354042E+01          0.145237141084968E+01
  |  91          0.910361405399868E+00         -0.603051578251238E+00         -0.633104745018806E+00
  |  92          0.931519224646241E-01          0.126779250237601E+00          0.462694017356741E+00
  |  93          0.652452000225699E+00         -0.106196407514158E+01         -0.853824328781852E+00
  |  94          0.397353205988924E+00         -0.305052042931791E+00         -0.135698985459278E+01
  |  95          0.986243301987333E+00          0.117402646109924E+01          0.589044009703903E+00
  |  96         -0.544320714920150E-01         -0.129258123436722E+01         -0.499255797202771E+00
  |  97         -0.122763236108192E+01         -0.715380586288747E-01          0.686254368176563E+00
  |  98         -0.748623552019832E+00          0.347502390604842E+00         -0.218048465874676E+00
  |  99          0.535048337764504E+00          0.115047913037630E+01          0.790840566293745E+00
  | 100          0.932425551875760E+00         -0.561805841175537E+00         -0.480941559214054E+00
  | 101         -0.726204484684822E+00          0.614811190299310E+00          0.862066139401447E+00
  | 102         -0.675820737972426E+00         -0.992930929572553E+00         -0.723194822649635E+00
  | 103         -0.118665736393611E+00          0.974343428103019E-01          0.279456554527730E+00
  | 104         -0.351948154569055E+00          0.617058691783669E+00          0.173793550375510E-02

  ------------------------------------ 
  Start decomposition of the XC Energy 
  ------------------------------------ 
  X and C from original XC functional choice 
  Hartree-Fock Energy :          0.000000000 Ha              0.000000000 eV
  X Energy            :      -2016.153165423 Ha         -54862.318995214 eV
  C Energy            :        -51.645082248 Ha          -1405.334190592 eV
  Total XC Energy     :      -2067.798247671 Ha         -56267.653185806 eV
  ------------------------------------ 
  LDA X and C from self-consistent density 
  X Energy LDA        :      -1867.776684976 Ha         -50824.789535024 eV
  C Energy LDA        :       -103.031783831 Ha          -2803.637485548 eV
  ------------------------------------ 
  End decomposition of the XC Energy 
  ------------------------------------ 

------------------------------------------------------------

------------------------------------------------------------------------------
  Final output of selected total energy values:

  The following output summarizes some interesting total energy values
  at the end of a run (AFTER all relaxation, molecular dynamics, etc.).

  | Total energy of the DFT / Hartree-Fock s.c.f. calculation      :        -859137.370359936 eV
  | Final zero-broadening corrected energy (caution - metals only) :        -859137.370359936 eV
  | For reference only, the value of 1 Hartree used in FHI-aims is :             27.211384500 eV

  Before relying on these values, please be sure to understand exactly which
  total energy value is referred to by a given number. Different objects may
  all carry the same name 'total energy'. Definitions:

  Total energy of the DFT / Hartree-Fock s.c.f. calculation:
  | Note that this energy does not include ANY quantities calculated after the
  | s.c.f. cycle, in particular not ANY RPA, MP2, etc. many-body perturbation terms.

  Final zero-broadening corrected energy:
  | For metallic systems only, a broadening of the occupation numbers at the Fermi
  | level can be extrapolated back to zero broadening by an electron-gas inspired
  | formula. For all systems that are not real metals, this value can be
  | meaningless and should be avoided.

------------------------------------------------------------------------------
  Methods described in the following list of references were used in this FHI-aims run.
  If you publish the results, please make sure to cite these reference if they apply.
  FHI-aims is an academic code, and for our developers (often, Ph.D. students
  and postdocs), scientific credit in the community is essential.
  Thank you for helping us!

  For any use of FHI-aims, please cite:

    Volker Blum, Ralf Gehrke, Felix Hanke, Paula Havu, Ville Havu,
    Xinguo Ren, Karsten Reuter, and Matthias Scheffler
    'Ab initio molecular simulations with numeric atom-centered orbitals'
    Computer Physics Communications 180, 2175-2196 (2009)
    http://dx.doi.org/10.1016/j.cpc.2009.06.022


  The provided symmetry information was generated with SPGlib:

    Atsushi Togo, Yusuke Seto, Dimitar Pashov
    SPGlib 1.7.3 obtained from http://spglib.sourceforge.net
    Copyright (C) 2008 Atsushi Togo


  The scalable eigensolver library ELPA was used in your run.
  ELPA is essential especially for large systems on hundreds or thousands of CPUs.
  For ELPA, please cite:

    Andreas Marek, Volker Blum, Rainer Johanni, Ville Havu, Bruno Lang,
    Thomas Auckenthaler, Alexander Heinecke, Hans-Joachim Bungartz, and Hermann Lederer,
    'The ELPA Library - Scalable Parallel Eigenvalue Solutions
    for Electronic Structure Theory and Computational Science'
    The Journal of Physics: Condensed Matter 26, 213201 (2014).
    http://dx.doi.org/10.1088/0953-8984/26/21/213201


  The ELSI infrastructure was used in your run to solve the Kohn-Sham electronic structure.
  Please check out http://elsi-interchange.org to learn more.
  If scalability is important for your project, please acknowledge ELSI by citing:

    V. W-z. Yu, F. Corsetti, A. Garcia, W. P. Huhn, M. Jacquelin, W. Jia,
    B. Lange, L. Lin, J. Lu, W. Mi, A. Seifitokaldani, A. Vazquez-Mayagoitia,
    C. Yang, H. Yang, and V. Blum
    'ELSI: A unified software interface for Kohn-Sham electronic structure solvers'
    Computer Physics Communications 222, 267-285 (2018).
    http://dx.doi.org/10.1016/j.cpc.2017.09.007


  For the real-space grid partitioning and parallelization used in this calculation, please cite:

    Ville Havu, Volker Blum, Paula Havu, and Matthias Scheffler,
    'Efficient O(N) integration for all-electron electronic structure calculation'
    'using numerically tabulated basis functions'
    Journal of Computational Physics 228, 8367-8379 (2009).
    http://dx.doi.org/10.1016/j.jcp.2009.08.008

  Of course, there are many other important community references, e.g., those cited in the
  above references. Our list is limited to references that describe implementations in the
  FHI-aims code. The reason is purely practical (length of this list) - please credit others as well.

------------------------------------------------------------
          Leaving FHI-aims.
          Date     :  20220704, Time     :  082253.678

          Computational steps:
          | Number of self-consistency cycles          :           23
          | Number of SCF (re)initializations          :            1

          Detailed time accounting                     :  max(cpu_time)    wall_clock(cpu1)
          | Total time                                 :     2834.720 s        2834.982 s
          | Preparation time                           :        0.463 s           0.465 s
          | Boundary condition initalization           :        0.827 s           0.827 s
          | Grid partitioning                          :        4.010 s           4.010 s
          | Preloading free-atom quantities on grid    :        0.035 s           0.035 s
          | Free-atom superposition energy             :        1.574 s           1.573 s
          | Total time for integrations                :      575.656 s         575.638 s
          | Total time for solution of K.-S. equations :       59.084 s          59.085 s
          | Total time for density & force components  :     1532.086 s        1531.992 s
          | Total time for mixing & preconditioning    :      239.077 s         239.106 s
          | Total time for Hartree multipole update    :        0.654 s           0.660 s
          | Total time for Hartree multipole sum       :      412.188 s         412.191 s
          | Total time for total energy evaluation     :        0.011 s           0.029 s

          Partial memory accounting:
          | Residual value for overall tracked memory usage across tasks :           0.000 MB (should be 0.000 MB)
          | Peak values for overall tracked memory usage (after allocating temp_ham_ovlp):
          |   Minimum:      425.806 MB (on task  1)
          |   Maximum:      425.806 MB (on task  1)
          |   Average:      425.806 MB
          | Largest tracked array allocation (overlap_matrix):
          |   Minimum:      108.374 MB (on task  1)
          |   Maximum:      108.374 MB (on task  1)
          |   Average:      108.374 MB
          Note:  These values currently only include a subset of arrays which are explicitly tracked.
          The "true" memory usage will be greater.

          Have a nice day.
------------------------------------------------------------
