  MPI-parallelism will be employed.
------------------------------------------------------------
          Invoking FHI-aims ...
          Version 171221_1
          Compiled on 2020/09/23 at 19:46:43 on host login.service.

          When using FHI-aims, please cite the following reference:

          Volker Blum, Ralf Gehrke, Felix Hanke, Paula Havu,
          Ville Havu, Xinguo Ren, Karsten Reuter, and Matthias Scheffler,
          'Ab Initio Molecular Simulations with Numeric Atom-Centered Orbitals',
          Computer Physics Communications 180, 2175-2196 (2009)

          For any questions about FHI-aims, please visit the aimsclub website
          with its forums and wiki. Contributions to both the forums and the
          wiki are warmly encouraged - they are for you, and everyone is welcome there.

------------------------------------------------------------



  Date     :  20220723, Time     :  170256.813
  Time zero on CPU 1             :   0.845340000000000E-01  s.
  Internal wall clock time zero  :           427827776.813  s.

  FHI-aims created a unique identifier for this run for later identification
  aims_uuid : 4CA67A2A-5021-4773-AA1B-DF2483172D16

  Using       20 parallel tasks.
  Task        0 on host node043 reporting.
  Task        1 on host node043 reporting.
  Task        2 on host node043 reporting.
  Task        3 on host node043 reporting.
  Task        4 on host node043 reporting.
  Task        5 on host node043 reporting.
  Task        6 on host node043 reporting.
  Task        7 on host node043 reporting.
  Task        8 on host node043 reporting.
  Task        9 on host node043 reporting.
  Task       10 on host node043 reporting.
  Task       11 on host node043 reporting.
  Task       12 on host node043 reporting.
  Task       13 on host node043 reporting.
  Task       14 on host node043 reporting.
  Task       15 on host node043 reporting.
  Task       16 on host node043 reporting.
  Task       17 on host node043 reporting.
  Task       18 on host node043 reporting.
  Task       19 on host node043 reporting.

  Performing system and environment tests:
  *** Environment variable OMP_NUM_THREADS is not set
  *** For performance reasons you might want to set it to 1
  | Maximum stacksize for task 0: unlimited
  | Maximum stacksize for task 1: unlimited
  | Maximum stacksize for task 2: unlimited
  | Maximum stacksize for task 3: unlimited
  | Maximum stacksize for task 4: unlimited
  | Maximum stacksize for task 5: unlimited
  | Maximum stacksize for task 6: unlimited
  | Maximum stacksize for task 7: unlimited
  | Maximum stacksize for task 8: unlimited
  | Maximum stacksize for task 9: unlimited
  | Maximum stacksize for task 10: unlimited
  | Maximum stacksize for task 11: unlimited
  | Maximum stacksize for task 12: unlimited
  | Maximum stacksize for task 13: unlimited
  | Maximum stacksize for task 14: unlimited
  | Maximum stacksize for task 15: unlimited
  | Maximum stacksize for task 16: unlimited
  | Maximum stacksize for task 17: unlimited
  | Maximum stacksize for task 18: unlimited
  | Maximum stacksize for task 19: unlimited
  | Current stacksize for task 0: unlimited
  | Current stacksize for task 1: unlimited
  | Current stacksize for task 2: unlimited
  | Current stacksize for task 3: unlimited
  | Current stacksize for task 4: unlimited
  | Current stacksize for task 5: unlimited
  | Current stacksize for task 6: unlimited
  | Current stacksize for task 7: unlimited
  | Current stacksize for task 8: unlimited
  | Current stacksize for task 9: unlimited
  | Current stacksize for task 10: unlimited
  | Current stacksize for task 11: unlimited
  | Current stacksize for task 12: unlimited
  | Current stacksize for task 13: unlimited
  | Current stacksize for task 14: unlimited
  | Current stacksize for task 15: unlimited
  | Current stacksize for task 16: unlimited
  | Current stacksize for task 17: unlimited
  | Current stacksize for task 18: unlimited
  | Current stacksize for task 19: unlimited
  | Checking for scalapack...
  | Testing pdtran()...
  | All pdtran() tests passed.

  Obtaining array dimensions for all initial allocations:
  
  -----------------------------------------------------------------------
  Parsing control.in (first pass over file, find array dimensions only).
  The contents of control.in will be repeated verbatim below
  unless switched off by setting 'verbatim_writeout .false.' .
  in the first line of control.in .
  -----------------------------------------------------------------------
  
  #===============================================================================
  # FHI-aims file: ./control.in
  # Created using the Atomic Simulation Environment (ASE)
  # Wed Mar 24 12:41:28 2021
  #===============================================================================
  xc                                 pbe
  sc_accuracy_etot                   1e-06
  sc_accuracy_eev                    0.001
  sc_accuracy_rho                    1e-06
  sc_accuracy_forces                 0.0001
  friction_temperature               300  # default 300
  
    k_grid                           3  3  3
  
  
  ################################################################################
  #
  #  FHI-aims code project
  #  VB, Fritz-Haber Institut, 2009
  #
  #  Suggested "light" defaults for Li atom (to be pasted into control.in file)
  #  Be sure to double-check any results obtained with these settings for post-processing,
  #  e.g., with the "tight" defaults and larger basis sets.
  #
  ################################################################################
    species        Li
  #     global species definitions
      nucleus             3
      mass                6.941
  #
      l_hartree           4
  #
      cut_pot             3.5  1.5  1.0
      basis_dep_cutoff    1e-4
  #
      radial_base         29 5.0
      radial_multiplier   1
      angular_grids       specified
        division   0.4484  110
        division   0.5659  194
        division   0.6315  302
  #      division   0.6662  434
  #      division   0.8186  590
  #      division   0.9037  770
  #      division   6.2760  974
  #      outer_grid   974
        outer_grid   302
  ################################################################################
  #
  #  Definition of "minimal" basis
  #
  ################################################################################
  #     valence basis states
      valence      2  s   1.
  #     ion occupancy
      ion_occ      1  s   2.
  ################################################################################
  #
  #  Suggested additional basis functions. For production calculations,
  #  uncomment them one after another (the most important basis functions are
  #  listed first).
  #
  #  Constructed for dimers: 1.80 A, 2.25 A, 2.75 A, 3.50 A, 4.50 A
  #
  ################################################################################
  #  "First tier" - improvements: -189.23 meV to -6.35 meV
       hydro 2 p 1.6
       hydro 2 s 2
       hydro 3 d 2.6
  #  "Second tier" - improvements: -4.69 meV to -0.41 meV
  #     hydro 3 p 4.6
  #     hydro 2 p 1.8
  #     hydro 3 s 6.2
  #     hydro 4 d 4.7
  #     hydro 4 f 4.1
  #  "Third tier" - improvements: -0.20 meV to -0.15 meV
  #     hydro 4 d 0.95
  #     hydro 3 p 6.2
  #     hydro 3 s 1.7
  #  Further functions, listed for completeness
  #     VB: The following functions are only listed for completeness; test very
  #         carefully before any kind of production use. From the point of view
  #         of the basis construction, their main role is to fill up space,
  #         and they are solely determined by the location of the cutoff potential.
  #     hydro 3 p 0.1  # -0.15 meV
  #     hydro 4 d 5    # -0.12 meV
  #     hydro 4 f 0.1  # -0.14 meV
  #     hydro 5 g 0.1  # -0.06 meV
  
  
  ################################################################################
  #
  #  FHI-aims code project
  #  VB, Fritz-Haber Institut, 2010
  #
  #  Suggested "light" defaults for P atom (to be pasted into control.in file)
  #  Be sure to double-check any results obtained with these settings for post-processing,
  #  e.g., with the "tight" defaults and larger basis sets.
  #
  ################################################################################
    species        P
  #     global species definitions
      nucleus             15
      mass                30.973762
  #
      l_hartree           4
  #
      cut_pot             3.5          1.5  1.0
      basis_dep_cutoff    1e-4
  #
      radial_base         43 5.0
      radial_multiplier   1
      angular_grids       specified
        division   0.5527   50
        division   0.8801  110
        division   1.1447  194
        division   1.3165  302
  #      division   1.4113  434
  #      division   1.4781  590
  #      division   1.5482  770
  #      division   1.5845  974
  #      division   2.2606 1202
        outer_grid  302
  ################################################################################
  #
  #  Definition of "minimal" basis
  #
  ################################################################################
  #     valence basis states
      valence      3  s   2.
      valence      3  p   3.
  #     ion occupancy
      ion_occ      3  s   1.
      ion_occ      3  p   2.
  ################################################################################
  #
  #  Suggested additional basis functions. For production calculations,
  #  uncomment them one after another (the most important basis functions are
  #  listed first).
  #
  #  Constructed for dimers: 1.625 A, 1.875 A, 2.5 A, 3.25 A, 4.0 A
  #
  ################################################################################
  #  "First tier" - improvements: -726.20 meV to -35.91 meV
       ionic 3 d auto
       ionic 3 p auto
  #     hydro 4 f 6.2
  #     hydro 5 g 8.6
       ionic 3 s auto
  #  "Second tier" - improvements: -16.02 meV to -1.71 meV
  #     hydro 4 d 6.2
  #     hydro 4 p 9.2
  #     hydro 5 f 9.8
  #     hydro 1 s 0.7
  #     hydro 5 g 13.2
  #  "Third tier" - improvements: -1.82 meV to -0.20 meV
  #     hydro 3 p 2.5
  #     hydro 4 d 6.4
  #     hydro 5 f 11.2
  #     hydro 2 s 1.5
  #  "Fourth tier" - improvements: -0.91 meV to -0.17 meV
  #     hydro 3 d 16.8
  #     hydro 5 g 18
  #     hydro 4 p 4.5
  #     hydro 3 s 2.1
  #  Further basis functions that fell out of the optimization - < -0.09 meV
  #     hydro 4 p 10.4
  #     hydro 4 d 17.6
  #     hydro 4 s 11.2
  ################################################################################
  #
  #  FHI-aims code project
  #  VB, Fritz-Haber Institut, 2009
  #
  #  Suggested "light" defaults for S atom (to be pasted into control.in file)
  #  Be sure to double-check any results obtained with these settings for post-processing,
  #  e.g., with the "tight" defaults and larger basis sets.
  #
  ################################################################################
    species        S
  #     global species definitions
      nucleus             16
      mass                32.065
  #
      l_hartree           4
  #
      cut_pot             3.5          1.5  1.0
      basis_dep_cutoff    1e-4
  #
      radial_base         44 5.0
      radial_multiplier   1
      angular_grids       specified
        division   0.4665  110
        division   0.5810  194
        division   0.7139  302
  #      division   0.8274  434
  #      division   0.9105  590
  #      division   1.0975  770
  #      division   1.2028  974
  #      outer_grid  974
        outer_grid  302
  ################################################################################
  #
  #  Definition of "minimal" basis
  #
  ################################################################################
  #     valence basis states
      valence      3  s   2.
      valence      3  p   4.
  #     ion occupancy
      ion_occ      3  s   1.
      ion_occ      3  p   3.
  ################################################################################
  #
  #  Suggested additional basis functions. For production calculations,
  #  uncomment them one after another (the most important basis functions are
  #  listed first).
  #
  #  Constructed for dimers: 1.6 A, 1.9 A, 2.5 A, 3.25 A, 4.0 A
  #
  ################################################################################
  #  "First tier" - improvements: -652.81 meV to -45.53 meV
       ionic 3 d auto
       hydro 2 p 1.8
  #     hydro 4 f 7
       ionic 3 s auto
  #  "Second tier" - improvements: -30.20 meV to -1.74 meV
  #     hydro 4 d 6.2
  #     hydro 5 g 10.8
  #     hydro 4 p 4.9
  #     hydro 5 f 10
  #     hydro 1 s 0.8
  #  "Third tier" - improvements: -1.04 meV to -0.20 meV
  #     hydro 3 d 3.9
  #     hydro 3 d 2.7
  #     hydro 5 g 12
  #     hydro 4 p 10.4
  #     hydro 5 f 12.4
  #     hydro 2 s 1.9
  #  "Fourth tier" - improvements: -0.35 meV to -0.06 meV
  #     hydro 4 d 10.4
  #     hydro 4 p 7.2
  #     hydro 4 d 10
  #     hydro 5 g 19.2
  #     hydro 4 s 12
  
  ################################################################################
  #
  #  FHI-aims code project
  #  VB, Fritz-Haber Institut, 2009
  #
  #  Suggested "light" defaults for Cl atom (to be pasted into control.in file)
  #  Be sure to double-check any results obtained with these settings for post-processing,
  #  e.g., with the "tight" defaults and larger basis sets.
  #
  ################################################################################
    species        Cl
  #     global species definitions
      nucleus             17
      mass                35.453
  #
      l_hartree           4
  #
      cut_pot             3.5          1.5  1.0
      basis_dep_cutoff    1e-4
  #
      radial_base         45 5.0
      radial_multiplier   1
      angular_grids       specified
        division   0.4412  110
        division   0.5489  194
        division   0.6734  302
  #      division   0.7794  434
  #      division   0.9402  590
  #      division   1.0779  770
  #      division   1.1792  974
  #      outer_grid  974
        outer_grid  302
  ################################################################################
  #
  #  Definition of "minimal" basis
  #
  ################################################################################
  #     valence basis states
      valence      3  s   2.
      valence      3  p   5.
  #     ion occupancy
      ion_occ      3  s   1.
      ion_occ      3  p   4.
  ################################################################################
  #
  #  Suggested additional basis functions. For production calculations,
  #  uncomment them one after another (the most important basis functions are
  #  listed first).
  #
  #  Constructed for dimers: 1.65 A, 2.0 A, 2.5 A, 3.25 A, 4.0 A
  #
  ################################################################################
  #  "First tier" - improvements: -429.57 meV to -15.03 meV
       ionic 3 d auto
       hydro 2 p 1.9
  #     hydro 4 f 7.4
       ionic 3 s auto
  #     hydro 5 g 10.4
  #  "Second tier" - improvements: -7.84 meV to -0.48 meV
  #     hydro 3 d 3.3
  #     hydro 5 f 9.8
  #     hydro 1 s 0.75
  #     hydro 5 g 11.2
  #     hydro 4 p 10.4
  #  "Third tier" - improvements: -1.00 meV to -0.12 meV
  #     hydro 4 d 12.8
  #     hydro 4 f 4.6
  #     hydro 4 d 10.8
  #     hydro 2 s 1.8
  #     hydro 3 p 3
  #  Further functions that fell out - improvements: -0.10 meV and below
  #     hydro 5 f 14.4
  #     hydro 4 s 12.8
  #     hydro 3 d 11.6
  #     hydro 4 s 4.1
  
  -----------------------------------------------------------------------
  Completed first pass over input file control.in .
  -----------------------------------------------------------------------
  
  
  -----------------------------------------------------------------------
  Parsing geometry.in (first pass over file, find array dimensions only).
  The contents of geometry.in will be repeated verbatim below
  unless switched off by setting 'verbatim_writeout .false.' .
  in the first line of geometry.in .
  -----------------------------------------------------------------------
  
  #=======================================================
  # FHI-aims file: geometry.in.3
  # Created using the Atomic Simulation Environment (ASE)
  # Sat Jul 23 22:56:02 2022
  #=======================================================
  lattice_vector 9.8979997634999997 0.0000000000000000 0.0000000000000000
  lattice_vector 0.0000000000000000 9.8979997634999997 0.0000000000000000
  lattice_vector 0.0000000000000000 0.0000000000000000 9.8979997634999997
  atom 3.0078033899999999 0.1228176000000000 6.8722096199999996 Li
  atom 3.6896256900000002 0.0823066800000000 2.7080581100000001 Li
  atom 6.8756230499999997 3.1918430099999999 0.4200673500000000 Li
  atom 6.7847023599999998 6.7361376799999997 -0.1340068800000000 Li
  atom 0.3503421500000000 6.6360799400000001 3.0385116900000000 Li
  atom 9.4642446600000003 6.5976161500000003 6.9660775700000004 Li
  atom -0.0054883700000000 2.8613252299999998 6.5284474699999997 Li
  atom 3.5576154400000002 6.3491382600000001 3.7898170800000002 Li
  atom 6.6708348099999997 8.1008502500000006 5.0154370200000002 Li
  atom 5.2872326899999997 2.2098661300000000 2.6765571900000000 Li
  atom 1.3694626500000000 8.7334288600000001 3.7587277299999999 Li
  atom 0.3833921800000000 2.2448787800000001 2.1623655500000001 Li
  atom 7.7083554699999999 -0.1812216600000000 1.6267827100000001 Li
  atom 8.2228539800000000 9.9960817100000003 8.0142521000000002 Li
  atom 2.0978505799999998 7.1241489400000004 7.2686018700000004 Li
  atom 5.8353362799999999 5.6560160599999998 7.2645242999999997 Li
  atom 7.6397780800000001 5.3133415800000003 4.4948728200000003 Li
  atom 0.1800654300000000 8.7379514000000000 2.4008894100000000 Li
  atom 1.6299351000000000 1.9840660400000001 9.5651750000000000 Li
  atom 4.7448262200000002 6.9763704899999999 5.0819757599999997 Li
  atom 0.0081609400000000 -0.0117910800000000 4.9183067100000004 P
  atom 4.8929847700000000 0.0604535500000000 -0.1340192100000000 P
  atom 0.0510094800000000 4.9893822999999999 0.0778722500000000 P
  atom 5.0572051599999996 4.8714473600000003 4.8181855200000001 P
  atom 1.1506171900000000 8.6423898000000001 6.1007710299999998 S
  atom 8.5965499100000002 1.1064078399999999 6.0562356599999996 S
  atom 8.7270295299999994 8.6827929800000003 3.7217594799999998 S
  atom 1.2663170600000000 1.2297058400000000 3.8762679599999998 S
  atom 6.0772003500000000 1.2928268100000000 8.5947161600000008 S
  atom 6.0123846099999998 8.7370763300000007 1.0684056000000000 S
  atom 3.6762799500000001 8.7763089999999995 8.5710134799999995 S
  atom 3.6969616500000000 1.2906963800000000 0.9734614900000000 S
  atom 8.7234750499999993 5.9582073900000001 1.4445069200000000 S
  atom 1.0654511799999999 6.3104565099999999 8.8024172800000002 S
  atom 8.7537265499999997 3.7811655000000002 8.8385333399999997 S
  atom 1.4207658599999999 3.8797812999999999 1.1628748400000000 S
  atom 6.0818337600000003 6.2506537399999997 3.7186957999999999 S
  atom 6.3250500100000000 3.7921890700000001 6.0115254000000000 S
  atom 4.0858136099999998 3.6118473199999999 3.5268009100000000 S
  atom 3.6289256399999998 5.7602658299999998 6.0479883399999999 S
  atom 2.3668205900000001 2.4936749499999999 7.2540696999999996 Cl
  atom 7.3134333600000003 7.5393838000000004 7.4843314599999999 Cl
  atom 4.7367071799999998 -0.2327336200000000 4.8929528400000004 Cl
  atom 5.1615237900000004 5.0305814000000000 -0.2583427600000000 Cl
  atom -0.0497286300000000 0.2602403500000000 0.1663799400000000 Cl
  atom 0.0300422700000000 4.9570735299999997 5.0233017999999996 Cl
  atom 7.5963873000000000 2.3519079600000001 2.4720184900000000 Cl
  atom 2.4716053100000002 7.5248888599999999 2.4620893100000001 Cl
  
  -----------------------------------------------------------------------
  Completed first pass over input file geometry.in .
  -----------------------------------------------------------------------
  

  Basic array size parameters:
  | Number of species                 :        4
  | Number of atoms                   :       48
  | Number of lattice vectors         :        3
  | Max. basis fn. angular momentum   :        2
  | Max. atomic/ionic basis occupied n:        3
  | Max. number of basis fn. types    :        3
  | Max. radial fns per species/type  :        5
  | Max. logarithmic grid size        :     1362
  | Max. radial integration grid size :       45
  | Max. angular integration grid size:      302
  | Max. angular grid division number :        8
  | Radial grid for Hartree potential :     1362
  | Number of spin channels           :        1

------------------------------------------------------------
          Reading file control.in.
------------------------------------------------------------
  XC: Using PBE gradient-corrected functionals.
  Convergence accuracy of total energy:  0.1000E-05
  Convergence accuracy of sum of eigenvalues:  0.1000E-02
  Convergence accuracy of self-consistent charge density:  0.1000E-05
  Convergence accuracy of forces:  0.1000E-03
  Friction is calculated at temperature of   0.3000E+03 K
  Found k-point grid:         3         3         3
 
  Reading configuration options for species Li                  .
  | Found nuclear charge :   3.0000
  | Found atomic mass :    6.94100000000000      amu
  | Found l_max for Hartree potential  :   4
  | Found cutoff potl. onset [A], width [A], scale factor :    3.50000    1.50000    1.00000
  | Threshold for basis-dependent cutoff potential is   0.100000E-03
  | Found data for basic radial integration grid :    29 points, outermost radius =    5.000 A
  | Found multiplier for basic radial grid :   1
  | Found angular grid specification: user-specified.
  | Specified grid contains     4 separate shells.
  | Check grid settings after all constraints further below.
  | Found free-atom valence shell :  2 s   1.000
  | Found free-ion valence shell :  1 s   2.000
  | Found hydrogenic basis function :  2 p   1.600
  | Found hydrogenic basis function :  2 s   2.000
  | Found hydrogenic basis function :  3 d   2.600
  Species Li                  : Missing cutoff potential type.
  Defaulting to exp(1/x)/(1-x)^2 type cutoff potential.
  Species Li: No 'logarithmic' tag. Using default grid for free atom:
  | Default logarithmic grid data [bohr] : 0.1000E-03 0.1000E+03 0.1012E+01
  Species Li: On-site basis accuracy parameter (for Gram-Schmidt orthonormalisation) not specified.
  Using default value basis_acc =  0.1000000E-03.
  Species Li                  : Using default innermost maximum threshold i_radial=  2 for radial functions.
  Species Li                  : Default cutoff onset for free atom density etc. : 0.35000000E+01 AA.
  Species Li                  : Basic radial grid will be enhanced according to radial_multiplier =   1, to contain    29 grid points.
 
  Reading configuration options for species P                   .
  | Found nuclear charge :  15.0000
  | Found atomic mass :    30.9737620000000      amu
  | Found l_max for Hartree potential  :   4
  | Found cutoff potl. onset [A], width [A], scale factor :    3.50000    1.50000    1.00000
  | Threshold for basis-dependent cutoff potential is   0.100000E-03
  | Found data for basic radial integration grid :    43 points, outermost radius =    5.000 A
  | Found multiplier for basic radial grid :   1
  | Found angular grid specification: user-specified.
  | Specified grid contains     5 separate shells.
  | Check grid settings after all constraints further below.
  | Found free-atom valence shell :  3 s   2.000
  | Found free-atom valence shell :  3 p   3.000
  | Found free-ion valence shell :  3 s   1.000
  | Found free-ion valence shell :  3 p   2.000
  | Found ionic basis function :  3 d , default cutoff radius.
  | Found ionic basis function :  3 p , default cutoff radius.
  | Found ionic basis function :  3 s , default cutoff radius.
  Species P                   : Missing cutoff potential type.
  Defaulting to exp(1/x)/(1-x)^2 type cutoff potential.
  Species P : No 'logarithmic' tag. Using default grid for free atom:
  | Default logarithmic grid data [bohr] : 0.1000E-03 0.1000E+03 0.1012E+01
  | Will include ionic basis functions of  2.0-fold positive P                    ion.
  Species P : On-site basis accuracy parameter (for Gram-Schmidt orthonormalisation) not specified.
  Using default value basis_acc =  0.1000000E-03.
  Species P                   : Using default innermost maximum threshold i_radial=  2 for radial functions.
  Species P                   : Default cutoff onset for free atom density etc. : 0.35000000E+01 AA.
  Species P                   : Basic radial grid will be enhanced according to radial_multiplier =   1, to contain    43 grid points.
 
  Reading configuration options for species S                   .
  | Found nuclear charge :  16.0000
  | Found atomic mass :    32.0650000000000      amu
  | Found l_max for Hartree potential  :   4
  | Found cutoff potl. onset [A], width [A], scale factor :    3.50000    1.50000    1.00000
  | Threshold for basis-dependent cutoff potential is   0.100000E-03
  | Found data for basic radial integration grid :    44 points, outermost radius =    5.000 A
  | Found multiplier for basic radial grid :   1
  | Found angular grid specification: user-specified.
  | Specified grid contains     4 separate shells.
  | Check grid settings after all constraints further below.
  | Found free-atom valence shell :  3 s   2.000
  | Found free-atom valence shell :  3 p   4.000
  | Found free-ion valence shell :  3 s   1.000
  | Found free-ion valence shell :  3 p   3.000
  | Found ionic basis function :  3 d , default cutoff radius.
  | Found hydrogenic basis function :  2 p   1.800
  | Found ionic basis function :  3 s , default cutoff radius.
  Species S                   : Missing cutoff potential type.
  Defaulting to exp(1/x)/(1-x)^2 type cutoff potential.
  Species S : No 'logarithmic' tag. Using default grid for free atom:
  | Default logarithmic grid data [bohr] : 0.1000E-03 0.1000E+03 0.1012E+01
  | Will include ionic basis functions of  2.0-fold positive S                    ion.
  Species S : On-site basis accuracy parameter (for Gram-Schmidt orthonormalisation) not specified.
  Using default value basis_acc =  0.1000000E-03.
  Species S                   : Using default innermost maximum threshold i_radial=  2 for radial functions.
  Species S                   : Default cutoff onset for free atom density etc. : 0.35000000E+01 AA.
  Species S                   : Basic radial grid will be enhanced according to radial_multiplier =   1, to contain    44 grid points.
 
  Reading configuration options for species Cl                  .
  | Found nuclear charge :  17.0000
  | Found atomic mass :    35.4530000000000      amu
  | Found l_max for Hartree potential  :   4
  | Found cutoff potl. onset [A], width [A], scale factor :    3.50000    1.50000    1.00000
  | Threshold for basis-dependent cutoff potential is   0.100000E-03
  | Found data for basic radial integration grid :    45 points, outermost radius =    5.000 A
  | Found multiplier for basic radial grid :   1
  | Found angular grid specification: user-specified.
  | Specified grid contains     4 separate shells.
  | Check grid settings after all constraints further below.
  | Found free-atom valence shell :  3 s   2.000
  | Found free-atom valence shell :  3 p   5.000
  | Found free-ion valence shell :  3 s   1.000
  | Found free-ion valence shell :  3 p   4.000
  | Found ionic basis function :  3 d , default cutoff radius.
  | Found hydrogenic basis function :  2 p   1.900
  | Found ionic basis function :  3 s , default cutoff radius.
  Species Cl                  : Missing cutoff potential type.
  Defaulting to exp(1/x)/(1-x)^2 type cutoff potential.
  Species Cl: No 'logarithmic' tag. Using default grid for free atom:
  | Default logarithmic grid data [bohr] : 0.1000E-03 0.1000E+03 0.1012E+01
  | Will include ionic basis functions of  2.0-fold positive Cl                   ion.
  Species Cl: On-site basis accuracy parameter (for Gram-Schmidt orthonormalisation) not specified.
  Using default value basis_acc =  0.1000000E-03.
  Species Cl                  : Using default innermost maximum threshold i_radial=  2 for radial functions.
  Species Cl                  : Default cutoff onset for free atom density etc. : 0.35000000E+01 AA.
  Species Cl                  : Basic radial grid will be enhanced according to radial_multiplier =   1, to contain    45 grid points.
 
  Finished reading input file 'control.in'. Consistency checks are next.
 
  MPI_IN_PLACE appears to work with this MPI implementation.
  | Keeping use_mpi_in_place .true. (see manual).
  Target number of points in a grid batch is not set. Defaulting to  100
  Method for grid partitioning is not set. Defaulting to parallel hash+maxmin partitioning.
  Batch size limit is not set. Defaulting to    200
  By default, will store active basis functions for each batch.
  If in need of memory, prune_basis_once .false. can be used to disable this option.
  communication_type for Hartree potential was not specified.
  Defaulting to calc_hartree .
  Defaulting to Pulay charge density mixer.
  Pulay mixer: Number of relevant iterations not set.
  Defaulting to    8 iterations.
  Pulay mixer: Number of initial linear mixing iterations not set.
  Defaulting to    0 iterations.
  Work space size for distributed Hartree potential not set.
  Defaulting to   0.200000E+03 MB.
  Mixing parameter for charge density mixing has not been set.
  Using default: charge_mix_param =     0.0500.
  The mixing parameter will be adjusted in iteration number     2 of the first full s.c.f. cycle only.
  Algorithm-dependent basis array size parameters:
  | n_max_pulay                         :        8
  Maximum number of self-consistency iterations not provided.
  Presetting  1000 iterations.
  Presetting      1001 iterations before the initial mixing cycle
  is restarted anyway using the sc_init_iter criterion / keyword.
  Presetting a factor      1.000 between actual scf density residual
  and density convergence criterion sc_accuracy_rho below which sc_init_iter
  takes no effect.
  Geometry relaxation not requested: no relaxation will be performed.
  Handling of forces: Unphysical translation and rotation will be removed from forces.
  No accuracy limit for integral partition fn. given. Defaulting to  0.1000E-14.
  No threshold value for u(r) in integrations given. Defaulting to  0.1000E-05.
  No occupation type (smearing scheme) given. Defaulting to Gaussian broadening, width =  0.1000E-01 eV.
  The width will be adjusted in iteration number     2 of the first full s.c.f. cycle only.
  S.C.F. convergence parameters will be adjusted in iteration number     2 of the first full s.c.f. cycle only.
  No accuracy for occupation numbers given. Defaulting to  0.1000E-12.
  No threshold value for occupation numbers given. Defaulting to  0.0000E+00.
  No accuracy for fermi level given. Defaulting to  0.1000E-19.
  Maximum # of iterations to find E_F not set. Defaulting to  200.
  Preferred method for the eigenvalue solver ('KS_method') not specified in 'control.in'.
  Defaulting to serial version, 'lapack_fast', since more k-points than CPUs available.
  Will not use alltoall communication since running on < 1024 CPUs.
  Threshold for basis singularities not set.
  Default threshold for basis singularities:  0.1000E-04
  partition_type (choice of integration weights) for integrals was not specified.
  | Using a version of the partition function of Stratmann and coworkers ('stratmann_smoother').
  | At each grid point, the set of atoms used to build the partition table is smoothly restricted to
  | only those atoms whose free-atom density would be non-zero at that grid point.
  Partitioning for Hartree potential was not defined. Using partition_type for integrals.
  | Adjusted default value of keyword multip_moments_threshold to:       0.10000000E-11
  | This value may affect high angular momentum components of the Hartree potential in periodic systems.
  Spin handling was not defined in control.in. Defaulting to unpolarized case.
  Angular momentum expansion for Kerker preconditioner not set explicitly.
  | Using default value of   0
  No explicit requirement for turning off preconditioner.
  | By default, it will be turned off when the charge convergence reaches
  | sc_accuracy_rho  =   0.100000E-05
  | sc_accuracy_eev  =   0.100000E-02
  | sc_accuracy_etot =   0.100000E-05
  No special mixing parameter while Kerker preconditioner is on.
  Using default: charge_mix_param =     0.0500.
  No q(lm)/r^(l+1) cutoff set for long-range Hartree potential.
  | Using default value of  0.100000E-09 .
  | Verify using the multipole_threshold keyword.
  Defaulting to new monopole extrapolation.
  Density update method: automatic selection selected.
  Using density matrix based charge density update.
  Using density matrix based charge density update.
  Using packed matrix style: index .
  Defaulting to use time-reversal symmetry for k-point grid.
------------------------------------------------------------


------------------------------------------------------------
          Reading geometry description geometry.in.
------------------------------------------------------------
 * Warning! You did not set the 'relativistic' flag in input file 'control.in'.
 * Since you are not attempting to treat any elements beyond Ca(Z=20), FHI-aims
 * will default to 'relativistic none'.
 * You must ensure that this is really what you want!!
 * For example, DO NOT compute total-energy differences between results from
 * different settings of the 'relativistic' flag.
  Input structure read successfully.
  The structure contains       48 atoms,  and a total of        512.000 electrons.

  Input geometry:
  | Unit cell:
  |        9.89799976        0.00000000        0.00000000
  |        0.00000000        9.89799976        0.00000000
  |        0.00000000        0.00000000        9.89799976
  | Atomic structure:
  |       Atom                x [A]            y [A]            z [A]
  |    1: Species Li            3.00780339        0.12281760        6.87220962
  |    2: Species Li            3.68962569        0.08230668        2.70805811
  |    3: Species Li            6.87562305        3.19184301        0.42006735
  |    4: Species Li            6.78470236        6.73613768       -0.13400688
  |    5: Species Li            0.35034215        6.63607994        3.03851169
  |    6: Species Li            9.46424466        6.59761615        6.96607757
  |    7: Species Li           -0.00548837        2.86132523        6.52844747
  |    8: Species Li            3.55761544        6.34913826        3.78981708
  |    9: Species Li            6.67083481        8.10085025        5.01543702
  |   10: Species Li            5.28723269        2.20986613        2.67655719
  |   11: Species Li            1.36946265        8.73342886        3.75872773
  |   12: Species Li            0.38339218        2.24487878        2.16236555
  |   13: Species Li            7.70835547       -0.18122166        1.62678271
  |   14: Species Li            8.22285398        9.99608171        8.01425210
  |   15: Species Li            2.09785058        7.12414894        7.26860187
  |   16: Species Li            5.83533628        5.65601606        7.26452430
  |   17: Species Li            7.63977808        5.31334158        4.49487282
  |   18: Species Li            0.18006543        8.73795140        2.40088941
  |   19: Species Li            1.62993510        1.98406604        9.56517500
  |   20: Species Li            4.74482622        6.97637049        5.08197576
  |   21: Species P             0.00816094       -0.01179108        4.91830671
  |   22: Species P             4.89298477        0.06045355       -0.13401921
  |   23: Species P             0.05100948        4.98938230        0.07787225
  |   24: Species P             5.05720516        4.87144736        4.81818552
  |   25: Species S             1.15061719        8.64238980        6.10077103
  |   26: Species S             8.59654991        1.10640784        6.05623566
  |   27: Species S             8.72702953        8.68279298        3.72175948
  |   28: Species S             1.26631706        1.22970584        3.87626796
  |   29: Species S             6.07720035        1.29282681        8.59471616
  |   30: Species S             6.01238461        8.73707633        1.06840560
  |   31: Species S             3.67627995        8.77630900        8.57101348
  |   32: Species S             3.69696165        1.29069638        0.97346149
  |   33: Species S             8.72347505        5.95820739        1.44450692
  |   34: Species S             1.06545118        6.31045651        8.80241728
  |   35: Species S             8.75372655        3.78116550        8.83853334
  |   36: Species S             1.42076586        3.87978130        1.16287484
  |   37: Species S             6.08183376        6.25065374        3.71869580
  |   38: Species S             6.32505001        3.79218907        6.01152540
  |   39: Species S             4.08581361        3.61184732        3.52680091
  |   40: Species S             3.62892564        5.76026583        6.04798834
  |   41: Species Cl            2.36682059        2.49367495        7.25406970
  |   42: Species Cl            7.31343336        7.53938380        7.48433146
  |   43: Species Cl            4.73670718       -0.23273362        4.89295284
  |   44: Species Cl            5.16152379        5.03058140       -0.25834276
  |   45: Species Cl           -0.04972863        0.26024035        0.16637994
  |   46: Species Cl            0.03004227        4.95707353        5.02330180
  |   47: Species Cl            7.59638730        2.35190796        2.47201849
  |   48: Species Cl            2.47160531        7.52488886        2.46208931

  Lattice parameters for 3D lattice (in Angstroms) :     9.898000    9.898000    9.898000
  Angle(s) between unit vectors (in degrees)      :    90.000000   90.000000   90.000000

  |

  | The smallest distance between any two atoms is         1.80510695 AA.
  |
  | The first atom of this pair is atom number                     11 .
  | The second atom of this pair is atom number                    18 .
  | Wigner-Seitz cell of the first atom image           0     0     0 .
  | (The Wigner-Seitz cell of the second atom is 0 0 0  by definition.)

  Symmetry information by spglib:
  | Precision set to  0.1E-04
  | Number of Operations  : 1
  | Space group           : 1
  | International         : P1
  | Schoenflies           : C1^1

  Quantities derived from the lattice vectors:
  | Reciprocal lattice vector 1:  0.634793  0.000000  0.000000
  | Reciprocal lattice vector 2:  0.000000  0.634793  0.000000
  | Reciprocal lattice vector 3:  0.000000  0.000000  0.634793
  | Unit cell volume                               :   0.969711E+03  A^3

  Range separation radius for Ewald summation (hartree_convergence_parameter):      3.90166475 bohr.

  Fractional coordinates:
                         L1                L2                L3
       atom_frac         0.30387992        0.01240833        0.69430287  Li
       atom_frac         0.37276478        0.00831549        0.27359650  Li
       atom_frac         0.69464773        0.32247354        0.04243962  Li
       atom_frac         0.68546196        0.68055545       -0.01353878  Li
       atom_frac         0.03539525        0.67044656        0.30698240  Li
       atom_frac         0.95617750        0.66656055        0.70378639  Li
       atom_frac        -0.00055449        0.28908116        0.65957240  Li
       atom_frac         0.35942772        0.64145670        0.38288717  Li
       atom_frac         0.67395787        0.81843306        0.50671218  Li
       atom_frac         0.53417183        0.22326391        0.27041395  Li
       atom_frac         0.13835751        0.88234280        0.37974619  Li
       atom_frac         0.03873431        0.22680126        0.21846490  Li
       atom_frac         0.77877911       -0.01830892        0.16435469  Li
       atom_frac         0.83075916        1.00990927        0.80968401  Li
       atom_frac         0.21194692        0.71975643        0.73435058  Li
       atom_frac         0.58954702        0.57143021        0.73393862  Li
       atom_frac         0.77185070        0.53680963        0.45411931  Li
       atom_frac         0.01819210        0.88279972        0.24256309  Li
       atom_frac         0.16467318        0.20045121        0.96637454  Li
       atom_frac         0.47937223        0.70482629        0.51343462  Li
       atom_frac         0.00082450       -0.00119126        0.49689905  P
       atom_frac         0.49434076        0.00610765       -0.01354003  P
       atom_frac         0.00515351        0.50407986        0.00786747  P
       atom_frac         0.51093203        0.49216483        0.48678376  P
       atom_frac         0.11624745        0.87314508        0.61636403  S
       atom_frac         0.86851385        0.11178095        0.61186460  S
       atom_frac         0.88169628        0.87722703        0.37601127  S
       atom_frac         0.12793666        0.12423781        0.39162134  S
       atom_frac         0.61398267        0.13061496        0.86832859  S
       atom_frac         0.60743431        0.88271131        0.10794157  S
       atom_frac         0.37141645        0.88667501        0.86593389  S
       atom_frac         0.37350593        0.13039972        0.09834931  S
       atom_frac         0.88133716        0.60196075        0.14593928  S
       atom_frac         0.10764308        0.63754866        0.88931274  S
       atom_frac         0.88439349        0.38201309        0.89296156  S
       atom_frac         0.14354070        0.39197630        0.11748584  S
       atom_frac         0.61445079        0.63150676        0.37570175  S
       atom_frac         0.63902305        0.38312681        0.60734750  S
       atom_frac         0.41279185        0.36490679        0.35631451  S
       atom_frac         0.36663222        0.58196262        0.61103137  S
       atom_frac         0.23912110        0.25193726        0.73288239  Cl
       atom_frac         0.73887993        0.76170782        0.75614585  Cl
       atom_frac         0.47855196       -0.02351320        0.49433754  Cl
       atom_frac         0.52147140        0.50824222       -0.02610050  Cl
       atom_frac        -0.00502411        0.02629222        0.01680945  Cl
       atom_frac         0.00303519        0.50081568        0.50750676  Cl
       atom_frac         0.76746691        0.23761447        0.24974930  Cl
       atom_frac         0.24970755        0.76024339        0.24874615  Cl

  Number of empty states per atom not set in control.in - providing a guess from actual geometry.
  | Total number of empty states used during s.c.f. cycle:      114
  If you use a very high smearing, use empty_states (per atom!) in control.in to increase this value.

  Structure-dependent array size parameters: 
  | Maximum number of distinct radial functions  :       29
  | Maximum number of basis functions            :      724
  | Number of Kohn-Sham states (occupied + empty):      370
------------------------------------------------------------

------------------------------------------------------------
          Preparing all fixed parts of the calculation.
------------------------------------------------------------
  Determining machine precision:
    2.225073858507201E-308
  Setting up grids for atomic and cluster calculations.

  Creating wave function, potential, and density for free atoms.

  Species: Li

  List of occupied orbitals and eigenvalues:
    n    l              occ      energy [Ha]    energy [eV]
    1    0           2.0000        -1.876896       -51.0729
    2    0           1.0000        -0.084105        -2.2886


  Species: P

  List of occupied orbitals and eigenvalues:
    n    l              occ      energy [Ha]    energy [eV]
    1    0           2.0000       -76.351489     -2077.6297
    2    0           2.0000        -6.353717      -172.8934
    3    0           2.0000        -0.506059       -13.7706
    2    1           6.0000        -4.569386      -124.3393
    3    1           3.0000        -0.198107        -5.3908


  Species: S

  List of occupied orbitals and eigenvalues:
    n    l              occ      energy [Ha]    energy [eV]
    1    0           2.0000       -88.105825     -2397.4815
    2    0           2.0000        -7.730144      -210.3479
    3    0           2.0000        -0.627748       -17.0819
    2    1           6.0000        -5.747971      -156.4103
    3    1           4.0000        -0.255786        -6.9603


  Species: Cl

  List of occupied orbitals and eigenvalues:
    n    l              occ      energy [Ha]    energy [eV]
    1    0           2.0000      -100.709620     -2740.4482
    2    0           2.0000        -9.221874      -250.9399
    3    0           2.0000        -0.753366       -20.5001
    2    1           6.0000        -7.038743      -191.5339
    3    1           5.0000        -0.315359        -8.5813

  Creating fixed part of basis set: Ionic, confined, hydrogenic.
 
  Li                   hydrogenic:
 
  List of hydrogenic basis orbitals: 
    n    l      effective z      eigenvalue [eV]  inner max. [A]     outer max. [A]     outer radius [A]   
    2    1         1.600000        -8.6069           1.303334           1.303334           4.591005
    2    0         2.000000       -13.5631           0.203259           1.385485           4.591005
    3    2         2.600000        -9.9241           1.769240           1.769240           4.591005
 
 
  P                    ion:

  List of free ionic orbitals and eigenvalues:
    n    l      energy [Ha]    energy [eV]
    1    0       -77.297133     -2103.3620
    2    0        -7.273914      -197.9333
    3    0        -1.267536       -34.4914
    2    1        -5.491316      -149.4263
    3    1        -0.913470       -24.8568


  List of ionic basis orbitals and eigenvalues:
    n    l      energy [Ha]    energy [eV]    outer radius [A]
    3    2        -0.457308       -12.4440       4.554583
    3    1        -0.913443       -24.8560       4.337222
    3    0        -1.267519       -34.4910       3.885335

 
  S                    ion:

  List of free ionic orbitals and eigenvalues:
    n    l      energy [Ha]    energy [eV]
    1    0       -89.127201     -2425.2745
    2    0        -8.724378      -237.4024
    3    0        -1.464668       -39.8556
    2    1        -6.744348      -183.5230
    3    1        -1.048520       -28.5317


  List of ionic basis orbitals and eigenvalues:
    n    l      energy [Ha]    energy [eV]    outer radius [A]
    3    2        -0.496135       -13.5005       4.539062
    3    0        -1.464653       -39.8552       3.642502

 
  S                    hydrogenic:
 
  List of hydrogenic basis orbitals: 
    n    l      effective z      eigenvalue [eV]  inner max. [A]     outer max. [A]     outer radius [A]   
    2    1         1.800000       -10.9749           1.168531           1.168531           4.594893
 
 
  Cl                   ion:

  List of free ionic orbitals and eigenvalues:
    n    l      energy [Ha]    energy [eV]
    1    0      -101.807232     -2770.3157
    2    0       -10.290876      -280.0290
    3    0        -1.664625       -45.2967
    2    1        -8.110237      -220.6908
    3    1        -1.183915       -32.2160


  List of ionic basis orbitals and eigenvalues:
    n    l      energy [Ha]    energy [eV]    outer radius [A]
    3    2        -0.529186       -14.3999       4.541334
    3    0        -1.664610       -45.2963       3.428237

 
  Cl                   hydrogenic:
 
  List of hydrogenic basis orbitals: 
    n    l      effective z      eigenvalue [eV]  inner max. [A]     outer max. [A]     outer radius [A]   
    2    1         1.900000       -12.2492           1.113321           1.113321           4.597192
 

  Adding cutoff potential to free-atom effective potential.
  Creating atomic-like basis functions for current effective potential.

  Species Li                  :

  List of atomic basis orbitals and eigenvalues:
    n    l      energy [Ha]    energy [eV]    outer radius [A]
    1    0        -1.876896       -51.0729       4.062706
    2    0        -0.084105        -2.2886       4.591005


  Species P                   :

  List of atomic basis orbitals and eigenvalues:
    n    l      energy [Ha]    energy [eV]    outer radius [A]
    1    0       -76.351489     -2077.6297       0.736837
    2    0        -6.353717      -172.8934       2.532824
    3    0        -0.506059       -13.7706       4.499242
    2    1        -4.569386      -124.3393       2.862183
    3    1        -0.198107        -5.3908       4.554583


  Species S                   :

  List of atomic basis orbitals and eigenvalues:
    n    l      energy [Ha]    energy [eV]    outer radius [A]
    1    0       -88.105825     -2397.4815       0.682391
    2    0        -7.730144      -210.3479       2.317169
    3    0        -0.627748       -17.0819       4.483910
    2    1        -5.747971      -156.4103       2.555240
    3    1        -0.255786        -6.9603       4.539062


  Species Cl                  :

  List of atomic basis orbitals and eigenvalues:
    n    l      energy [Ha]    energy [eV]    outer radius [A]
    1    0      -100.709620     -2740.4482       0.642251
    2    0        -9.221874      -250.9399       2.128190
    3    0        -0.753366       -20.5001       4.431645
    2    1        -7.038743      -191.5339       2.346844
    3    1        -0.315359        -8.5813       4.541334

  Assembling full basis from fixed parts.
  | Species Li :   atomic orbital   1 s accepted.
  | Species Li :   atomic orbital   2 s accepted.
  | Species Li :    hydro orbital   2 s accepted.
  | Species Li :    hydro orbital   2 p accepted.
  | Species Li :    hydro orbital   3 d accepted.
  | Species P :   atomic orbital   1 s accepted.
  | Species P :   atomic orbital   2 s accepted.
  | Species P :    ionic orbital   3 s accepted.
  | Species P :   atomic orbital   3 s accepted.
  | Species P :   atomic orbital   2 p accepted.
  | Species P :    ionic orbital   3 p accepted.
  | Species P :   atomic orbital   3 p accepted.
  | Species P :    ionic orbital   3 d accepted.
  | Species S :   atomic orbital   1 s accepted.
  | Species S :   atomic orbital   2 s accepted.
  | Species S :    ionic orbital   3 s accepted.
  | Species S :   atomic orbital   3 s accepted.
  | Species S :   atomic orbital   2 p accepted.
  | Species S :   atomic orbital   3 p accepted.
  | Species S :    hydro orbital   2 p accepted.
  | Species S :    ionic orbital   3 d accepted.
  | Species Cl :   atomic orbital   1 s accepted.
  | Species Cl :   atomic orbital   2 s accepted.
  | Species Cl :    ionic orbital   3 s accepted.
  | Species Cl :   atomic orbital   3 s accepted.
  | Species Cl :   atomic orbital   2 p accepted.
  | Species Cl :   atomic orbital   3 p accepted.
  | Species Cl :    hydro orbital   2 p accepted.
  | Species Cl :    ionic orbital   3 d accepted.
 
  Basis size parameters after reduction:
  | Total number of radial functions:       29
  | Total number of basis functions :      724
 
  Per-task memory consumption for arrays in subroutine allocate_ext:
  |           7.605768MB.
  Testing on-site integration grid accuracy.
  |  Species  Function  <phi|h_atom|phi> (log., in eV)  <phi|h_atom|phi> (rad., in eV)
           1        1                -51.0729407432                -51.0729328795
           1        2                 -2.3261068990                 -2.3227046518
           1        3                 17.1966930198                 17.2358027191 ***
           1        4                  0.3867256281                  0.3982841734
           1        5                  6.2743141416                  6.2817896417
           2        6              -2077.6297159538              -2077.6288551184
           2        7               -172.8934457906               -172.8934403880
           2        8                -13.4653967551                -13.4655200798
           2        9                  6.4162845277                  6.4013396720
           2       10               -124.3393201040               -124.3393200061
           2       11                 -4.7560266034                 -4.7560495157
           2       12                  6.5873401476                  6.4958904717 ***
           2       13                  5.2911719464                  5.2826493609
           3       14              -2397.4814915323              -2397.4804563634
           3       15               -210.3479335736               -210.3479265952
           3       16                -16.8079362322                -16.8079092816
           3       17                  7.5772439785                  7.5675998324
           3       18               -156.4102581151               -156.4102580951
           3       19                 -6.9617737483                 -6.9640288036
           3       20                  7.5696988470                  7.5151244831 ***
           3       21                  6.0973034823                  6.0928113248
           4       22              -2740.4481953768              -2740.4469735573
           4       23               -250.9399497423               -250.9399403187
           4       24                -20.2462734235                -20.2462512680
           4       25                  8.9460051782                  8.9510436705
           4       26               -191.5339459398               -191.5339455009
           4       27                 -8.5819075957                 -8.5827488985
           4       28                  8.1339828089                  8.0979459360 ***
           4       29                  7.0302175114                  7.0277664253
 * Note: Onsite integrals marked "***" above are less accurate than
 * onsite_accuracy_threshold =    0.03000 eV. Usually, this is harmless.
 * When in doubt, tighten the "radial" and/or "radial_multiplier" flags to check.

  Preparing densities etc. for the partition functions (integrals / Hartree potential).

  Preparations completed.
  max(cpu_time)          :      0.409 s.
  Wall clock time (cpu1) :      0.410 s.
------------------------------------------------------------

------------------------------------------------------------
          Begin self-consistency loop: Initialization.

          Date     :  20220723, Time     :  170257.321
------------------------------------------------------------

  Initializing index lists of integration centers etc. from given atomic structure:
  Mapping all atomic coordinates to central unit cell.

  Initializing the k-points
          Using symmetry for reducing the k-points
  | k-points reduced from:       27 to       14
  | Number of k-points                             :        14
  The eigenvectors in the calculations are COMPLEX.
  | K-points in task   0:         0
  | K-points in task   1:         1
  | K-points in task   2:         1
  | K-points in task   3:         1
  | K-points in task   4:         1
  | K-points in task   5:         1
  | K-points in task   6:         1
  | K-points in task   7:         1
  | K-points in task   8:         1
  | K-points in task   9:         1
  | K-points in task  10:         1
  | K-points in task  11:         1
  | K-points in task  12:         1
  | K-points in task  13:         1
  | K-points in task  14:         1
  | K-points in task  15:         0
  | K-points in task  16:         0
  | K-points in task  17:         0
  | K-points in task  18:         0
  | K-points in task  19:         0
  | Number of basis functions in the Hamiltonian integrals :      3879
  | Number of basis functions in a single unit cell        :       724
  | Number of centers in hartree potential         :      1765
  | Number of centers in hartree multipole         :       937
  | Number of centers in electron density summation:       726
  | Number of centers in basis integrals           :       759
  | Number of centers in integrals                 :       333
  | Number of centers in hamiltonian               :       731
  | Consuming          6 KiB for k_phase.
  | Number of super-cells (origin) [n_cells]                     :         125
  | Number of super-cells (after PM_index) [n_cells]             :          28
  | Number of super-cells in hamiltonian [n_cells_in_hamiltonian]:          28
  | Size of matrix packed + index [n_hamiltonian_matrix_size] :      744848
  Partitioning the integration grid into batches with parallel hashing+maxmin method.
  | Number of batches:     4419
  | Maximal batch size:     168
  | Minimal batch size:      56
  | Average batch size:      81.311
  | Standard deviation of batch sizes:      14.642

  Integration load balanced across    20 MPI tasks.
  Work distribution over tasks is as follows:
  Task     0 has      18007 integration points.
  Task     1 has      17993 integration points.
  Task     2 has      17964 integration points.
  Task     3 has      17951 integration points.
  Task     4 has      17935 integration points.
  Task     5 has      17977 integration points.
  Task     6 has      17929 integration points.
  Task     7 has      17975 integration points.
  Task     8 has      17952 integration points.
  Task     9 has      17968 integration points.
  Task    10 has      17976 integration points.
  Task    11 has      17962 integration points.
  Task    12 has      17994 integration points.
  Task    13 has      17981 integration points.
  Task    14 has      17935 integration points.
  Task    15 has      17971 integration points.
  Task    16 has      17949 integration points.
  Task    17 has      17981 integration points.
  Task    18 has      17968 integration points.
  Task    19 has      17944 integration points.
  Initializing partition tables, free-atom densities, potentials, etc. across the integration grid (initialize_grid_storage).
  | initialize_grid_storage: Actual outermost partition radius vs. multipole_radius_free
  | (-- VB: in principle, multipole_radius_free should be larger, hence this output)
  | Species        1: Confinement radius =              4.999999999999999 AA, multipole_radius_free =              5.001180127821857 AA.
  | Species        1: outer_partition_radius set to              5.001180127821857 AA .
  | Species        2: Confinement radius =              4.999999999999999 AA, multipole_radius_free =              5.022530438398565 AA.
  | Species        2: outer_partition_radius set to              5.022530438398565 AA .
  | Species        3: Confinement radius =              4.999999999999999 AA, multipole_radius_free =              5.005414751018925 AA.
  | Species        3: outer_partition_radius set to              5.005414751018925 AA .
  | Species        4: Confinement radius =              4.999999999999999 AA, multipole_radius_free =              5.007919576009533 AA.
  | Species        4: outer_partition_radius set to              5.007919576009533 AA .
  | Original list of interatomic distances with         759 x        759 entries is created.
  | Net number of integration points:   359312
  | of which are non-zero points    :   323490
  | Numerical average free-atom electrostatic potential    :     -9.55341358 eV
  Renormalizing the initial density to the exact electron count on the 3D integration grid.
  | Initial density: Formal number of electrons (from input files) :     512.0000000000
  | Integrated number of electrons on 3D grid     :     512.0004691084
  | Charge integration error                      :       0.0004691084
  | Normalization factor for density and gradient :       0.9999990838
  Obtaining max. number of non-zero basis functions in each batch (get_n_compute_maxes).
  | Maximal number of non-zero basis functions:      433 in task     0
  | Maximal number of non-zero basis functions:      406 in task     1
  | Maximal number of non-zero basis functions:      416 in task     2
  | Maximal number of non-zero basis functions:      417 in task     3
  | Maximal number of non-zero basis functions:      434 in task     4
  | Maximal number of non-zero basis functions:      451 in task     5
  | Maximal number of non-zero basis functions:      417 in task     6
  | Maximal number of non-zero basis functions:      439 in task     7
  | Maximal number of non-zero basis functions:      426 in task     8
  | Maximal number of non-zero basis functions:      422 in task     9
  | Maximal number of non-zero basis functions:      432 in task    10
  | Maximal number of non-zero basis functions:      439 in task    11
  | Maximal number of non-zero basis functions:      441 in task    12
  | Maximal number of non-zero basis functions:      429 in task    13
  | Maximal number of non-zero basis functions:      445 in task    14
  | Maximal number of non-zero basis functions:      441 in task    15
  | Maximal number of non-zero basis functions:      455 in task    16
  | Maximal number of non-zero basis functions:      428 in task    17
  | Maximal number of non-zero basis functions:      423 in task    18
  | Maximal number of non-zero basis functions:      432 in task    19
  Allocating        0.000 MB for KS_eigenvector_complex
  Integrating Hamiltonian matrix: batch-based integration.
  Time summed over all CPUs for integration: real work       13.043 s, elapsed       13.190 s
  Integrating overlap matrix.
  Time summed over all CPUs for integration: real work        8.852 s, elapsed        8.933 s
  Decreasing sparse matrix size:
   Tolerance:  9.999999824516700E-014
   Hamiltonian matrix
  | Array has   661478 nonzero elements out of   744848 elements
  | Sparsity factor is 0.112
   Overlap matrix
  | Array has   619847 nonzero elements out of   744848 elements
  | Sparsity factor is 0.168
  New size of hamiltonian matrix:      661484

  Updating Kohn-Sham eigenvalues and eigenvectors using ELSI and the ELPA eigensolver.

  Obtaining occupation numbers and chemical potential using ELSI.
  | Chemical potential (Fermi level):    -7.48963744eV
  Writing Kohn-Sham eigenvalues.
  K-point:       1 at    0.000000    0.000000    0.000000 (in units of recip. lattice)

  State    Occupation    Eigenvalue [Ha]    Eigenvalue [eV]
      1       2.00000        -100.750167        -2741.55152
      2       2.00000        -100.731059        -2741.03158
      3       2.00000        -100.728672        -2740.96662
      4       2.00000        -100.725237        -2740.87315
      5       2.00000        -100.723973        -2740.83875
      6       2.00000        -100.723850        -2740.83541
      7       2.00000        -100.722897        -2740.80947
      8       2.00000        -100.722750        -2740.80548
      9       2.00000         -88.163442        -2399.04931
     10       2.00000         -88.155321        -2398.82833
     11       2.00000         -88.154465        -2398.80505
     12       2.00000         -88.142235        -2398.47225
     13       2.00000         -88.140067        -2398.41324
     14       2.00000         -88.138168        -2398.36158
     15       2.00000         -88.137842        -2398.35272
     16       2.00000         -88.134878        -2398.27206
     17       2.00000         -88.134817        -2398.27040
     18       2.00000         -88.134554        -2398.26323
     19       2.00000         -88.132139        -2398.19751
     20       2.00000         -88.128378        -2398.09517
     21       2.00000         -88.128173        -2398.08959
     22       2.00000         -88.126302        -2398.03869
     23       2.00000         -88.123230        -2397.95509
     24       2.00000         -88.121689        -2397.91316
     25       2.00000         -76.401807        -2078.99894
     26       2.00000         -76.391737        -2078.72493
     27       2.00000         -76.377831        -2078.34654
     28       2.00000         -76.377610        -2078.34051
     29       2.00000          -9.265067         -252.11530
     30       2.00000          -9.245157         -251.57352
     31       2.00000          -9.242476         -251.50057
     32       2.00000          -9.238880         -251.40271
     33       2.00000          -9.237585         -251.36749
     34       2.00000          -9.237500         -251.36516
     35       2.00000          -9.236278         -251.33192
     36       2.00000          -9.236137         -251.32808
     37       2.00000          -7.792546         -212.04596
     38       2.00000          -7.783859         -211.80958
     39       2.00000          -7.783104         -211.78904
     40       2.00000          -7.770213         -211.43826
     41       2.00000          -7.767545         -211.36564
     42       2.00000          -7.765616         -211.31317
     43       2.00000          -7.765467         -211.30910
     44       2.00000          -7.762326         -211.22364
     45       2.00000          -7.762115         -211.21789
     46       2.00000          -7.761684         -211.20617
     47       2.00000          -7.759222         -211.13918
     48       2.00000          -7.755195         -211.02959
     49       2.00000          -7.755122         -211.02760
     50       2.00000          -7.753147         -210.97386
     51       2.00000          -7.749915         -210.88592
     52       2.00000          -7.748153         -210.83798
     53       2.00000          -7.082383         -192.72144
     54       2.00000          -7.081341         -192.69310
     55       2.00000          -7.080961         -192.68276
     56       2.00000          -7.062042         -192.16794
     57       2.00000          -7.061752         -192.16004
     58       2.00000          -7.061572         -192.15516
     59       2.00000          -7.059590         -192.10123
     60       2.00000          -7.059085         -192.08747
     61       2.00000          -7.058746         -192.07825
     62       2.00000          -7.055826         -191.99879
     63       2.00000          -7.055541         -191.99103
     64       2.00000          -7.055341         -191.98559
     65       2.00000          -7.054611         -191.96573
     66       2.00000          -7.054550         -191.96408
     67       2.00000          -7.054304         -191.95737
     68       2.00000          -7.054263         -191.95627
     69       2.00000          -7.053928         -191.94715
     70       2.00000          -7.053762         -191.94262
     71       2.00000          -7.053299         -191.93004
     72       2.00000          -7.053031         -191.92273
     73       2.00000          -7.052931         -191.92002
     74       2.00000          -7.052877         -191.91854
     75       2.00000          -7.052766         -191.91554
     76       2.00000          -7.052672         -191.91296
     77       2.00000          -6.411950         -174.47805
     78       2.00000          -6.400758         -174.17349
     79       2.00000          -6.385688         -173.76341
     80       2.00000          -6.385422         -173.75616
     81       2.00000          -5.810786         -158.11954
     82       2.00000          -5.809773         -158.09197
     83       2.00000          -5.808719         -158.06330
     84       2.00000          -5.802903         -157.90503
     85       2.00000          -5.801787         -157.87466
     86       2.00000          -5.800615         -157.84277
     87       2.00000          -5.800561         -157.84130
     88       2.00000          -5.799874         -157.82260
     89       2.00000          -5.798832         -157.79425
     90       2.00000          -5.789753         -157.54719
     91       2.00000          -5.787533         -157.48678
     92       2.00000          -5.786774         -157.46612
     93       2.00000          -5.786398         -157.45590
     94       2.00000          -5.784232         -157.39697
     95       2.00000          -5.784104         -157.39347
     96       2.00000          -5.783655         -157.38127
     97       2.00000          -5.783427         -157.37506
     98       2.00000          -5.783189         -157.36857
     99       2.00000          -5.783074         -157.36545
    100       2.00000          -5.781949         -157.33482
    101       2.00000          -5.781897         -157.33343
    102       2.00000          -5.781201         -157.31449
    103       2.00000          -5.780832         -157.30444
    104       2.00000          -5.780488         -157.29508
    105       2.00000          -5.779599         -157.27088
    106       2.00000          -5.779237         -157.26105
    107       2.00000          -5.778928         -157.25264
    108       2.00000          -5.778914         -157.25226
    109       2.00000          -5.778745         -157.24767
    110       2.00000          -5.777796         -157.22183
    111       2.00000          -5.777753         -157.22066
    112       2.00000          -5.776418         -157.18434
    113       2.00000          -5.776015         -157.17336
    114       2.00000          -5.774152         -157.12268
    115       2.00000          -5.773753         -157.11182
    116       2.00000          -5.772566         -157.07953
    117       2.00000          -5.772280         -157.07173
    118       2.00000          -5.771857         -157.06022
    119       2.00000          -5.771626         -157.05395
    120       2.00000          -5.771507         -157.05071
    121       2.00000          -5.770818         -157.03194
    122       2.00000          -5.769631         -156.99964
    123       2.00000          -5.768707         -156.97450
    124       2.00000          -5.767283         -156.93574
    125       2.00000          -5.766878         -156.92474
    126       2.00000          -5.766442         -156.91286
    127       2.00000          -5.765328         -156.88255
    128       2.00000          -5.765014         -156.87400
    129       2.00000          -4.628020         -125.93483
    130       2.00000          -4.626787         -125.90129
    131       2.00000          -4.626107         -125.88278
    132       2.00000          -4.617154         -125.63915
    133       2.00000          -4.615369         -125.59059
    134       2.00000          -4.615135         -125.58422
    135       2.00000          -4.601121         -125.20289
    136       2.00000          -4.600931         -125.19771
    137       2.00000          -4.600894         -125.19671
    138       2.00000          -4.600771         -125.19335
    139       2.00000          -4.600718         -125.19191
    140       2.00000          -4.600426         -125.18395
    141       2.00000          -1.960097          -53.33696
    142       2.00000          -1.953418          -53.15520
    143       2.00000          -1.939384          -52.77333
    144       2.00000          -1.923837          -52.35026
    145       2.00000          -1.904660          -51.82845
    146       2.00000          -1.904192          -51.81570
    147       2.00000          -1.898078          -51.64934
    148       2.00000          -1.897214          -51.62582
    149       2.00000          -1.896832          -51.61543
    150       2.00000          -1.894116          -51.54151
    151       2.00000          -1.892912          -51.50875
    152       2.00000          -1.892849          -51.50704
    153       2.00000          -1.891361          -51.46656
    154       2.00000          -1.887918          -51.37286
    155       2.00000          -1.887614          -51.36459
    156       2.00000          -1.886126          -51.32409
    157       2.00000          -1.885490          -51.30679
    158       2.00000          -1.885449          -51.30569
    159       2.00000          -1.885273          -51.30090
    160       2.00000          -1.884653          -51.28401
    161       2.00000          -0.848850          -23.09839
    162       2.00000          -0.830384          -22.59590
    163       2.00000          -0.827003          -22.50389
    164       2.00000          -0.803436          -21.86261
    165       2.00000          -0.800575          -21.78475
    166       2.00000          -0.799648          -21.75953
    167       2.00000          -0.794787          -21.62725
    168       2.00000          -0.789594          -21.48595
    169       2.00000          -0.788304          -21.45084
    170       2.00000          -0.788128          -21.44604
    171       2.00000          -0.783441          -21.31852
    172       2.00000          -0.783013          -21.30687
    173       2.00000          -0.766153          -20.84809
    174       2.00000          -0.744269          -20.25258
    175       2.00000          -0.734581          -19.98897
    176       2.00000          -0.727928          -19.80794
    177       2.00000          -0.722129          -19.65012
    178       2.00000          -0.719665          -19.58307
    179       2.00000          -0.716829          -19.50591
    180       2.00000          -0.715694          -19.47502
    181       2.00000          -0.708909          -19.29040
    182       2.00000          -0.706595          -19.22742
    183       2.00000          -0.701188          -19.08029
    184       2.00000          -0.697586          -18.98227
    185       2.00000          -0.573029          -15.59292
    186       2.00000          -0.559482          -15.22428
    187       2.00000          -0.543189          -14.78093
    188       2.00000          -0.535673          -14.57641
    189       2.00000          -0.468157          -12.73921
    190       2.00000          -0.463188          -12.60399
    191       2.00000          -0.461522          -12.55864
    192       2.00000          -0.457534          -12.45014
    193       2.00000          -0.448751          -12.21114
    194       2.00000          -0.444762          -12.10260
    195       2.00000          -0.437123          -11.89471
    196       2.00000          -0.431635          -11.74540
    197       2.00000          -0.429059          -11.67528
    198       2.00000          -0.424520          -11.55179
    199       2.00000          -0.422814          -11.50536
    200       2.00000          -0.417682          -11.36569
    201       2.00000          -0.413669          -11.25650
    202       2.00000          -0.403421          -10.97765
    203       2.00000          -0.399328          -10.86626
    204       2.00000          -0.395080          -10.75069
    205       2.00000          -0.392150          -10.67095
    206       2.00000          -0.390857          -10.63577
    207       2.00000          -0.386745          -10.52386
    208       2.00000          -0.384055          -10.45066
    209       2.00000          -0.382631          -10.41191
    210       2.00000          -0.378211          -10.29164
    211       2.00000          -0.377644          -10.27621
    212       2.00000          -0.376620          -10.24835
    213       2.00000          -0.375697          -10.22324
    214       2.00000          -0.374502          -10.19072
    215       2.00000          -0.373044          -10.15104
    216       2.00000          -0.370929          -10.09350
    217       2.00000          -0.369536          -10.05558
    218       2.00000          -0.367158           -9.99089
    219       2.00000          -0.365208           -9.93781
    220       2.00000          -0.364255           -9.91188
    221       2.00000          -0.362339           -9.85974
    222       2.00000          -0.361899           -9.84778
    223       2.00000          -0.360596           -9.81232
    224       2.00000          -0.356978           -9.71387
    225       2.00000          -0.356072           -9.68922
    226       2.00000          -0.355497           -9.67357
    227       2.00000          -0.353966           -9.63191
    228       2.00000          -0.352712           -9.59778
    229       2.00000          -0.349434           -9.50857
    230       2.00000          -0.347123           -9.44570
    231       2.00000          -0.346351           -9.42469
    232       2.00000          -0.344710           -9.38003
    233       2.00000          -0.343828           -9.35603
    234       2.00000          -0.340849           -9.27498
    235       2.00000          -0.339911           -9.24945
    236       2.00000          -0.338121           -9.20075
    237       2.00000          -0.334358           -9.09834
    238       2.00000          -0.330766           -9.00059
    239       2.00000          -0.327767           -8.91901
    240       2.00000          -0.325342           -8.85302
    241       2.00000          -0.324185           -8.82152
    242       2.00000          -0.321334           -8.74395
    243       2.00000          -0.318649           -8.67087
    244       2.00000          -0.316731           -8.61870
    245       2.00000          -0.315522           -8.58578
    246       2.00000          -0.312090           -8.49239
    247       2.00000          -0.307089           -8.35632
    248       2.00000          -0.305371           -8.30957
    249       2.00000          -0.300908           -8.18813
    250       2.00000          -0.298295           -8.11702
    251       2.00000          -0.297914           -8.10665
    252       2.00000          -0.295461           -8.03990
    253       2.00000          -0.288941           -7.86248
    254       2.00000          -0.285647           -7.77284
    255       2.00000          -0.282636           -7.69093
    256       2.00000          -0.276973           -7.53681
    257       0.00000          -0.192870           -5.24826
    258       0.00000          -0.163374           -4.44564
    259       0.00000          -0.148474           -4.04018
    260       0.00000          -0.139997           -3.80952
    261       0.00000          -0.136492           -3.71415
    262       0.00000          -0.132109           -3.59486
    263       0.00000          -0.125173           -3.40613
    264       0.00000          -0.121193           -3.29782
    265       0.00000          -0.118174           -3.21569
    266       0.00000          -0.116709           -3.17581
    267       0.00000          -0.112666           -3.06581
    268       0.00000          -0.102259           -2.78261
    269       0.00000          -0.095523           -2.59930
    270       0.00000          -0.087809           -2.38941
    271       0.00000          -0.085351           -2.32251
    272       0.00000          -0.081394           -2.21484
    273       0.00000          -0.077095           -2.09787
    274       0.00000          -0.074489           -2.02695
    275       0.00000          -0.068210           -1.85609
    276       0.00000          -0.067497           -1.83668
    277       0.00000          -0.065696           -1.78768
    278       0.00000          -0.063095           -1.71690
    279       0.00000          -0.058447           -1.59042
    280       0.00000          -0.056404           -1.53484
    281       0.00000          -0.054684           -1.48802
    282       0.00000          -0.052102           -1.41776
    283       0.00000          -0.049956           -1.35938
    284       0.00000          -0.045393           -1.23519
    285       0.00000          -0.037462           -1.01938
    286       0.00000          -0.034559           -0.94041
    287       0.00000          -0.029980           -0.81580
    288       0.00000          -0.026706           -0.72671
[...]
    306       0.00000           0.032067            0.87257
    307       0.00000           0.036881            1.00357
    308       0.00000           0.037435            1.01865
    309       0.00000           0.040387            1.09899
    310       0.00000           0.042954            1.16884
    311       0.00000           0.045440            1.23648
    312       0.00000           0.047991            1.30590
    313       0.00000           0.048526            1.32046
    314       0.00000           0.051278            1.39534
    315       0.00000           0.054199            1.47483
    316       0.00000           0.056291            1.53175
    317       0.00000           0.058273            1.58569
    318       0.00000           0.059628            1.62256
    319       0.00000           0.061437            1.67179
    320       0.00000           0.063405            1.72533
    321       0.00000           0.065819            1.79102
    322       0.00000           0.070728            1.92461
    323       0.00000           0.071997            1.95914
    324       0.00000           0.072524            1.97347
    325       0.00000           0.075674            2.05919
    326       0.00000           0.078666            2.14062
    327       0.00000           0.079733            2.16964
    328       0.00000           0.081874            2.22791
    329       0.00000           0.085610            2.32956
    330       0.00000           0.088305            2.40289
    331       0.00000           0.092672            2.52174
    332       0.00000           0.092992            2.53045
    333       0.00000           0.094859            2.58124
    334       0.00000           0.096238            2.61877
    335       0.00000           0.099768            2.71482
    336       0.00000           0.106267            2.89166
    337       0.00000           0.107563            2.92695
    338       0.00000           0.108907            2.96352
    339       0.00000           0.111341            3.02975
    340       0.00000           0.113685            3.09352
    341       0.00000           0.116325            3.16537
    342       0.00000           0.121177            3.29740
    343       0.00000           0.122529            3.33419
    344       0.00000           0.126236            3.43505
    345       0.00000           0.127358            3.46559
    346       0.00000           0.130201            3.54295
    347       0.00000           0.131559            3.57990
    348       0.00000           0.134433            3.65810
    349       0.00000           0.137800            3.74972
    350       0.00000           0.142491            3.87738
    351       0.00000           0.144476            3.93139
    352       0.00000           0.149302            4.06272
    353       0.00000           0.149728            4.07431
    354       0.00000           0.154817            4.21278
    355       0.00000           0.154982            4.21727
    356       0.00000           0.161911            4.40582
    357       0.00000           0.163132            4.43906
    358       0.00000           0.163753            4.45595
    359       0.00000           0.166552            4.53212
    360       0.00000           0.170708            4.64520
    361       0.00000           0.173151            4.71169
    362       0.00000           0.177598            4.83269
    363       0.00000           0.180368            4.90805
    364       0.00000           0.182209            4.95816
    365       0.00000           0.187935            5.11397
    366       0.00000           0.192976            5.25113
    367       0.00000           0.195244            5.31286
    368       0.00000           0.197003            5.36071
    369       0.00000           0.199511            5.42898
    370       0.00000           0.204508            5.56494

  What follows are estimated values for band gap, HOMO, LUMO, etc.
  | They are estimated on a discrete k-point grid and not necessarily exact.
  | For converged numbers, create a DOS and/or band structure plot on a denser k-grid.

  Highest occupied state (VBM) at     -6.30333055 eV (relative to internal zero)
  | Occupation number:      2.00000000
  | K-point:       1 at    0.000000    0.000000    0.000000 (in units of recip. lattice)

  Lowest unoccupied state (CBM) at    -5.38572635 eV (relative to internal zero)
  | Occupation number:      0.00000000
  | K-point:       1 at    0.000000    0.000000    0.000000 (in units of recip. lattice)

  ESTIMATED overall HOMO-LUMO gap:      0.91760419 eV between HOMO at k-point 1 and LUMO at k-point 1
  | This appears to be a direct band gap.
  The gap value is above 0.2 eV. Unless you are using a very sparse k-point grid,
  this system is most likely an insulator or a semiconductor.

  Self-consistency cycle converged.

  End self-consistency iteration #    21       :  max(cpu_time)    wall_clock(cpu1)
  | Time for this iteration                    :       14.384 s          14.387 s
  | Charge density & force component update    :        9.515 s           9.516 s
  | Density mixing                             :        0.007 s           0.007 s
  | Hartree multipole update                   :        0.005 s           0.004 s
  | Hartree multipole summation                :        3.817 s           3.817 s
  | Integration                                :        0.665 s           0.665 s
  | Solution of K.-S. eqns.                    :        0.371 s           0.371 s
  | Total energy evaluation                    :        0.002 s           0.003 s

  Partial memory accounting:
  | Current value for overall tracked memory usage on task 0  :          13.231 MB
  | Peak value for overall tracked memory usage on task 0     :          26.370 MB after allocating wave_pulay
  | Largest tracked array allocation on task 0 so far         :           8.387 MB  when allocating kdm_complex
  Note:  These values currently only include a subset of arrays which are explicitly tracked.
  The "true" memory usage will be greater.
------------------------------------------------------------
  |------------------------------------------
  | Final ELSI Output
  |------------------------------------------
  | Number of basis functions :          724
  | Number of electrons       :        512.0
  | Number of states          :          370
  | Solver                    :         ELPA
  | Parallel mode             :  SINGLE_PROC
  | Matrix format             :  BLACS_DENSE
  |------------------------------------------
  | ELSI Project (c)  elsi-interchange.org
  |------------------------------------------
  Removing unitary transformations (pure translations, rotations) from forces on atoms.
  Atomic forces before filtering:
  | Net force on center of mass :   0.111499E-01  0.235352E-02 -0.100329E-01 eV/A
  Atomic forces after filtering:
  | Net force on center of mass :  -0.178406E-15  0.231928E-14  0.713624E-15 eV/A

  Energy and forces in a compact form:
  | Total energy uncorrected      :         -0.314732136449280E+06 eV
  | Total energy corrected        :         -0.314732136449280E+06 eV  <-- do not rely on this value for anything but (periodic) metals
  | Electronic free energy        :         -0.314732136449280E+06 eV
  Total atomic forces (unitary forces cleaned) [eV/Ang]:
  |   1          0.196013332983034E+00          0.122265140285711E+01         -0.362680435229931E+00
  |   2          0.566368930547020E-01         -0.109286057418516E+01          0.107634902864688E+01
  |   3         -0.201837886270095E+00          0.234860574394305E+00         -0.586080765814899E+00
  |   4         -0.179469760842180E+00         -0.304986748799087E+00          0.247597009747410E+00
  |   5         -0.133173281917998E+00         -0.191015223908392E+01          0.447665447761086E+00
  |   6         -0.229067152011377E+00         -0.391975652026371E+00          0.186431931778728E-01
  |   7          0.924659874265418E+00          0.848690643530990E+00          0.472387230108079E+00
  |   8         -0.126190169485406E+01         -0.113685821130341E+01         -0.153940256316122E+01
  |   9          0.579717945068072E+00          0.119825830736071E+01          0.485239864472612E+00
  |  10          0.135149899359258E+01         -0.985892329875608E+00         -0.704949352665213E+00
  |  11          0.255838985449214E+01         -0.239787267269341E+00          0.143849735645725E+01
  |  12         -0.148017291959248E+01          0.105596470824059E-01         -0.479603548974691E+00
  |  13          0.146065446126415E+01          0.170871820617403E+01          0.156154331309933E+00
  |  14         -0.331031499478695E+00         -0.279194596910211E+00          0.905577336722975E+00
  |  15          0.152626263850276E+01         -0.475070557569143E-01         -0.510013217962553E-01
  |  16         -0.185739893473850E+00         -0.241387237828680E+00          0.134488761604403E+01
  |  17          0.244668428571352E+01         -0.199760827180152E+01          0.102343465260279E+01
  |  18          0.157364297433233E+01          0.105632284885676E+01         -0.554218834876071E+01
  |  19          0.246379967930505E+00          0.142476223436218E+00         -0.671314388593937E+00
  |  20          0.950231827429291E+00          0.508222894325156E+01          0.105540062872086E+01
  |  21         -0.173825244535863E+01          0.296472189633263E+01          0.288144812662554E+01
  |  22          0.365664650396173E+00          0.505583335691719E-01         -0.214540585224903E+01
  |  23          0.120148421908231E+00         -0.102794270916956E+01         -0.216155511086109E+00
  |  24          0.238730732548430E+00         -0.582198853100895E+01          0.996380648803887E+00
  |  25         -0.585238686344169E+00          0.379873874199507E+00         -0.769464303695027E+00
  |  26         -0.994571962575366E-01         -0.649348881694828E+00         -0.113509970053166E+01
  |  27         -0.230445371036452E+01         -0.116534658336619E+01          0.171864814790041E+01
  |  28          0.601358638449331E+00         -0.125611402516726E+01          0.345229096330727E+00
  |  29          0.807362464098854E-01         -0.212230022277539E+00          0.448720219433439E+00
  |  30         -0.139089686394325E+01         -0.133805502135018E+01          0.378816000229960E+00
  |  31          0.362006233175876E+00         -0.402814603383681E+00          0.742065905531110E+00
  |  32         -0.291700296249946E+00          0.112855702383353E+01          0.667117952161797E-01
  |  33         -0.416527802492781E+00          0.769997281855438E+00          0.370320559526052E-01
  |  34         -0.680620886393718E+00         -0.156735232833565E+00          0.122225094335263E+01
  |  35         -0.123216764490939E+00          0.399341882428256E-01         -0.377830947973460E+00
  |  36          0.512384619820367E+00          0.905466932181078E+00         -0.207995007422298E+00
  |  37         -0.110314193987104E+01          0.188572193232300E+01         -0.256782831457898E+01
  |  38          0.110117819249082E+00          0.764283118971091E+00         -0.609801339057254E+00
  |  39         -0.132825221862172E+01          0.231809660496622E+01          0.864942643304011E+00
  |  40         -0.122544073662310E+01         -0.149763593685429E+01          0.102739732313637E+01
  |  41         -0.556617731573027E+00         -0.549433023445253E+00          0.117809389040685E+00
  |  42          0.101802145357426E+00          0.159322709647964E-01         -0.647910273615736E+00
  |  43          0.568104368993268E-01         -0.749961448855371E+00         -0.268021372894476E+00
  |  44          0.648281921802041E+00          0.197489322504470E+00         -0.229266387158703E+00
  |  45         -0.256064466014595E+00         -0.308187815620152E+00          0.655028775832147E+00
  |  46         -0.246377413487143E+00          0.684206988712442E+00          0.774569126416875E-02
  |  47          0.277780143462619E-01         -0.377399939670833E+00         -0.725353885001185E-01
  |  48         -0.747939682464072E+00          0.531797393937554E+00         -0.997525333965936E+00

  ------------------------------------ 
  Start decomposition of the XC Energy 
  ------------------------------------ 
  X and C from original XC functional choice 
  Hartree-Fock Energy :          0.000000000 Ha              0.000000000 eV
  X Energy            :       -745.386036815 Ha         -20282.986048704 eV
  C Energy            :        -19.340196053 Ha           -526.273511113 eV
  Total XC Energy     :       -764.726232868 Ha         -20809.259559817 eV
  ------------------------------------ 
  LDA X and C from self-consistent density 
  X Energy LDA        :       -690.024278110 Ha         -18776.515945983 eV
  C Energy LDA        :        -38.821716566 Ha          -1056.392656431 eV
  ------------------------------------ 
  End decomposition of the XC Energy 
  ------------------------------------ 

------------------------------------------------------------

------------------------------------------------------------------------------
  Final output of selected total energy values:

  The following output summarizes some interesting total energy values
  at the end of a run (AFTER all relaxation, molecular dynamics, etc.).

  | Total energy of the DFT / Hartree-Fock s.c.f. calculation      :        -314732.136449280 eV
  | Final zero-broadening corrected energy (caution - metals only) :        -314732.136449280 eV
  | For reference only, the value of 1 Hartree used in FHI-aims is :             27.211384500 eV

  Before relying on these values, please be sure to understand exactly which
  total energy value is referred to by a given number. Different objects may
  all carry the same name 'total energy'. Definitions:

  Total energy of the DFT / Hartree-Fock s.c.f. calculation:
  | Note that this energy does not include ANY quantities calculated after the
  | s.c.f. cycle, in particular not ANY RPA, MP2, etc. many-body perturbation terms.

  Final zero-broadening corrected energy:
  | For metallic systems only, a broadening of the occupation numbers at the Fermi
  | level can be extrapolated back to zero broadening by an electron-gas inspired
  | formula. For all systems that are not real metals, this value can be
  | meaningless and should be avoided.

------------------------------------------------------------------------------
  Methods described in the following list of references were used in this FHI-aims run.
  If you publish the results, please make sure to cite these reference if they apply.
  FHI-aims is an academic code, and for our developers (often, Ph.D. students
  and postdocs), scientific credit in the community is essential.
  Thank you for helping us!

  For any use of FHI-aims, please cite:

    Volker Blum, Ralf Gehrke, Felix Hanke, Paula Havu, Ville Havu,
    Xinguo Ren, Karsten Reuter, and Matthias Scheffler
    'Ab initio molecular simulations with numeric atom-centered orbitals'
    Computer Physics Communications 180, 2175-2196 (2009)
    http://dx.doi.org/10.1016/j.cpc.2009.06.022


  The provided symmetry information was generated with SPGlib:

    Atsushi Togo, Yusuke Seto, Dimitar Pashov
    SPGlib 1.7.3 obtained from http://spglib.sourceforge.net
    Copyright (C) 2008 Atsushi Togo


  The scalable eigensolver library ELPA was used in your run.
  ELPA is essential especially for large systems on hundreds or thousands of CPUs.
  For ELPA, please cite:

    Andreas Marek, Volker Blum, Rainer Johanni, Ville Havu, Bruno Lang,
    Thomas Auckenthaler, Alexander Heinecke, Hans-Joachim Bungartz, and Hermann Lederer,
    'The ELPA Library - Scalable Parallel Eigenvalue Solutions
    for Electronic Structure Theory and Computational Science'
    The Journal of Physics: Condensed Matter 26, 213201 (2014).
    http://dx.doi.org/10.1088/0953-8984/26/21/213201


  The ELSI infrastructure was used in your run to solve the Kohn-Sham electronic structure.
  Please check out http://elsi-interchange.org to learn more.
  If scalability is important for your project, please acknowledge ELSI by citing:

    V. W-z. Yu, F. Corsetti, A. Garcia, W. P. Huhn, M. Jacquelin, W. Jia,
    B. Lange, L. Lin, J. Lu, W. Mi, A. Seifitokaldani, A. Vazquez-Mayagoitia,
    C. Yang, H. Yang, and V. Blum
    'ELSI: A unified software interface for Kohn-Sham electronic structure solvers'
    Computer Physics Communications 222, 267-285 (2018).
    http://dx.doi.org/10.1016/j.cpc.2017.09.007


  For the real-space grid partitioning and parallelization used in this calculation, please cite:

    Ville Havu, Volker Blum, Paula Havu, and Matthias Scheffler,
    'Efficient O(N) integration for all-electron electronic structure calculation'
    'using numerically tabulated basis functions'
    Journal of Computational Physics 228, 8367-8379 (2009).
    http://dx.doi.org/10.1016/j.jcp.2009.08.008

  Of course, there are many other important community references, e.g., those cited in the
  above references. Our list is limited to references that describe implementations in the
  FHI-aims code. The reason is purely practical (length of this list) - please credit others as well.

 * A warning was issued further up regarding the CPU load.
   Some CPUs do not participate in the eigenvalue solution.
   In corner cases, this may be the correct behavior. Otherwise,
   consider using a scalapack/elpa version of the code for a parallel treatment.

------------------------------------------------------------
          Leaving FHI-aims.
          Date     :  20220723, Time     :  170446.470

          Computational steps:
          | Number of self-consistency cycles          :           21
          | Number of SCF (re)initializations          :            1

          Detailed time accounting                     :  max(cpu_time)    wall_clock(cpu1)
          | Total time                                 :      109.629 s         109.657 s
          | Preparation time                           :        0.409 s           0.410 s
          | Boundary condition initalization           :        0.244 s           0.244 s
          | Grid partitioning                          :        0.243 s           0.243 s
          | Preloading free-atom quantities on grid    :        0.009 s           0.017 s
          | Free-atom superposition energy             :        0.130 s           0.130 s
          | Total time for integrations                :       15.144 s          15.144 s
          | Total time for solution of K.-S. equations :        8.305 s           8.309 s
          | Total time for density & force components  :       31.295 s          31.287 s
          | Total time for mixing & preconditioning    :       19.328 s          19.337 s
          | Total time for Hartree multipole update    :        0.174 s           0.171 s
          | Total time for Hartree multipole sum       :       33.542 s          33.546 s
          | Total time for total energy evaluation     :        0.008 s           0.028 s

          Partial memory accounting:
          | Residual value for overall tracked memory usage across tasks :           0.000 MB (should be 0.000 MB)
          | Peak values for overall tracked memory usage (after allocating wave_pulay):
          |   Minimum:       26.033 MB (on task 19)
          |   Maximum:       51.082 MB (on task  2)
          |   Average:       43.693 MB
          | Largest tracked array allocation (kdm_complex):
          |   Minimum:        8.387 MB (on task  1)
          |   Maximum:        8.387 MB (on task  1)
          |   Average:        8.387 MB
          Note:  These values currently only include a subset of arrays which are explicitly tracked.
          The "true" memory usage will be greater.

          Have a nice day.
------------------------------------------------------------
