  MPI-parallelism will be employed.
------------------------------------------------------------
          Invoking FHI-aims ...
          Version 171221_1
          Compiled on 2020/09/23 at 19:46:43 on host login.service.

          When using FHI-aims, please cite the following reference:

          Volker Blum, Ralf Gehrke, Felix Hanke, Paula Havu,
          Ville Havu, Xinguo Ren, Karsten Reuter, and Matthias Scheffler,
          'Ab Initio Molecular Simulations with Numeric Atom-Centered Orbitals',
          Computer Physics Communications 180, 2175-2196 (2009)

          For any questions about FHI-aims, please visit the aimsclub website
          with its forums and wiki. Contributions to both the forums and the
          wiki are warmly encouraged - they are for you, and everyone is welcome there.

------------------------------------------------------------



  Date     :  20220723, Time     :  171548.809
  Time zero on CPU 1             :   0.852680000000000E-01  s.
  Internal wall clock time zero  :           427828548.809  s.

  FHI-aims created a unique identifier for this run for later identification
  aims_uuid : 59FB9DD8-C53B-4A31-A022-028C75662832

  Using       20 parallel tasks.
  Task        0 on host node043 reporting.
  Task        1 on host node043 reporting.
  Task        2 on host node043 reporting.
  Task        3 on host node043 reporting.
  Task        4 on host node043 reporting.
  Task        5 on host node043 reporting.
  Task        6 on host node043 reporting.
  Task        7 on host node043 reporting.
  Task        8 on host node043 reporting.
  Task        9 on host node043 reporting.
  Task       10 on host node043 reporting.
  Task       11 on host node043 reporting.
  Task       12 on host node043 reporting.
  Task       13 on host node043 reporting.
  Task       14 on host node043 reporting.
  Task       15 on host node043 reporting.
  Task       16 on host node043 reporting.
  Task       17 on host node043 reporting.
  Task       18 on host node043 reporting.
  Task       19 on host node043 reporting.

  Performing system and environment tests:
  *** Environment variable OMP_NUM_THREADS is not set
  *** For performance reasons you might want to set it to 1
  | Maximum stacksize for task 0: unlimited
  | Maximum stacksize for task 1: unlimited
  | Maximum stacksize for task 2: unlimited
  | Maximum stacksize for task 3: unlimited
  | Maximum stacksize for task 4: unlimited
  | Maximum stacksize for task 5: unlimited
  | Maximum stacksize for task 6: unlimited
  | Maximum stacksize for task 7: unlimited
  | Maximum stacksize for task 8: unlimited
  | Maximum stacksize for task 9: unlimited
  | Maximum stacksize for task 10: unlimited
  | Maximum stacksize for task 11: unlimited
  | Maximum stacksize for task 12: unlimited
  | Maximum stacksize for task 13: unlimited
  | Maximum stacksize for task 14: unlimited
  | Maximum stacksize for task 15: unlimited
  | Maximum stacksize for task 16: unlimited
  | Maximum stacksize for task 17: unlimited
  | Maximum stacksize for task 18: unlimited
  | Maximum stacksize for task 19: unlimited
  | Current stacksize for task 0: unlimited
  | Current stacksize for task 1: unlimited
  | Current stacksize for task 2: unlimited
  | Current stacksize for task 3: unlimited
  | Current stacksize for task 4: unlimited
  | Current stacksize for task 5: unlimited
  | Current stacksize for task 6: unlimited
  | Current stacksize for task 7: unlimited
  | Current stacksize for task 8: unlimited
  | Current stacksize for task 9: unlimited
  | Current stacksize for task 10: unlimited
  | Current stacksize for task 11: unlimited
  | Current stacksize for task 12: unlimited
  | Current stacksize for task 13: unlimited
  | Current stacksize for task 14: unlimited
  | Current stacksize for task 15: unlimited
  | Current stacksize for task 16: unlimited
  | Current stacksize for task 17: unlimited
  | Current stacksize for task 18: unlimited
  | Current stacksize for task 19: unlimited
  | Checking for scalapack...
  | Testing pdtran()...
  | All pdtran() tests passed.

  Obtaining array dimensions for all initial allocations:
  
  -----------------------------------------------------------------------
  Parsing control.in (first pass over file, find array dimensions only).
  The contents of control.in will be repeated verbatim below
  unless switched off by setting 'verbatim_writeout .false.' .
  in the first line of control.in .
  -----------------------------------------------------------------------
  
  #===============================================================================
  # FHI-aims file: ./control.in
  # Created using the Atomic Simulation Environment (ASE)
  # Wed Mar 24 12:41:28 2021
  #===============================================================================
  xc                                 pbe
  sc_accuracy_etot                   1e-06
  sc_accuracy_eev                    0.001
  sc_accuracy_rho                    1e-06
  sc_accuracy_forces                 0.0001
  friction_temperature               300  # default 300
  
    k_grid                           3  3  3
  
  
  ################################################################################
  #
  #  FHI-aims code project
  #  VB, Fritz-Haber Institut, 2009
  #
  #  Suggested "light" defaults for Li atom (to be pasted into control.in file)
  #  Be sure to double-check any results obtained with these settings for post-processing,
  #  e.g., with the "tight" defaults and larger basis sets.
  #
  ################################################################################
    species        Li
  #     global species definitions
      nucleus             3
      mass                6.941
  #
      l_hartree           4
  #
      cut_pot             3.5  1.5  1.0
      basis_dep_cutoff    1e-4
  #
      radial_base         29 5.0
      radial_multiplier   1
      angular_grids       specified
        division   0.4484  110
        division   0.5659  194
        division   0.6315  302
  #      division   0.6662  434
  #      division   0.8186  590
  #      division   0.9037  770
  #      division   6.2760  974
  #      outer_grid   974
        outer_grid   302
  ################################################################################
  #
  #  Definition of "minimal" basis
  #
  ################################################################################
  #     valence basis states
      valence      2  s   1.
  #     ion occupancy
      ion_occ      1  s   2.
  ################################################################################
  #
  #  Suggested additional basis functions. For production calculations,
  #  uncomment them one after another (the most important basis functions are
  #  listed first).
  #
  #  Constructed for dimers: 1.80 A, 2.25 A, 2.75 A, 3.50 A, 4.50 A
  #
  ################################################################################
  #  "First tier" - improvements: -189.23 meV to -6.35 meV
       hydro 2 p 1.6
       hydro 2 s 2
       hydro 3 d 2.6
  #  "Second tier" - improvements: -4.69 meV to -0.41 meV
  #     hydro 3 p 4.6
  #     hydro 2 p 1.8
  #     hydro 3 s 6.2
  #     hydro 4 d 4.7
  #     hydro 4 f 4.1
  #  "Third tier" - improvements: -0.20 meV to -0.15 meV
  #     hydro 4 d 0.95
  #     hydro 3 p 6.2
  #     hydro 3 s 1.7
  #  Further functions, listed for completeness
  #     VB: The following functions are only listed for completeness; test very
  #         carefully before any kind of production use. From the point of view
  #         of the basis construction, their main role is to fill up space,
  #         and they are solely determined by the location of the cutoff potential.
  #     hydro 3 p 0.1  # -0.15 meV
  #     hydro 4 d 5    # -0.12 meV
  #     hydro 4 f 0.1  # -0.14 meV
  #     hydro 5 g 0.1  # -0.06 meV
  
  
  ################################################################################
  #
  #  FHI-aims code project
  #  VB, Fritz-Haber Institut, 2010
  #
  #  Suggested "light" defaults for P atom (to be pasted into control.in file)
  #  Be sure to double-check any results obtained with these settings for post-processing,
  #  e.g., with the "tight" defaults and larger basis sets.
  #
  ################################################################################
    species        P
  #     global species definitions
      nucleus             15
      mass                30.973762
  #
      l_hartree           4
  #
      cut_pot             3.5          1.5  1.0
      basis_dep_cutoff    1e-4
  #
      radial_base         43 5.0
      radial_multiplier   1
      angular_grids       specified
        division   0.5527   50
        division   0.8801  110
        division   1.1447  194
        division   1.3165  302
  #      division   1.4113  434
  #      division   1.4781  590
  #      division   1.5482  770
  #      division   1.5845  974
  #      division   2.2606 1202
        outer_grid  302
  ################################################################################
  #
  #  Definition of "minimal" basis
  #
  ################################################################################
  #     valence basis states
      valence      3  s   2.
      valence      3  p   3.
  #     ion occupancy
      ion_occ      3  s   1.
      ion_occ      3  p   2.
  ################################################################################
  #
  #  Suggested additional basis functions. For production calculations,
  #  uncomment them one after another (the most important basis functions are
  #  listed first).
  #
  #  Constructed for dimers: 1.625 A, 1.875 A, 2.5 A, 3.25 A, 4.0 A
  #
  ################################################################################
  #  "First tier" - improvements: -726.20 meV to -35.91 meV
       ionic 3 d auto
       ionic 3 p auto
  #     hydro 4 f 6.2
  #     hydro 5 g 8.6
       ionic 3 s auto
  #  "Second tier" - improvements: -16.02 meV to -1.71 meV
  #     hydro 4 d 6.2
  #     hydro 4 p 9.2
  #     hydro 5 f 9.8
  #     hydro 1 s 0.7
  #     hydro 5 g 13.2
  #  "Third tier" - improvements: -1.82 meV to -0.20 meV
  #     hydro 3 p 2.5
  #     hydro 4 d 6.4
  #     hydro 5 f 11.2
  #     hydro 2 s 1.5
  #  "Fourth tier" - improvements: -0.91 meV to -0.17 meV
  #     hydro 3 d 16.8
  #     hydro 5 g 18
  #     hydro 4 p 4.5
  #     hydro 3 s 2.1
  #  Further basis functions that fell out of the optimization - < -0.09 meV
  #     hydro 4 p 10.4
  #     hydro 4 d 17.6
  #     hydro 4 s 11.2
  ################################################################################
  #
  #  FHI-aims code project
  #  VB, Fritz-Haber Institut, 2009
  #
  #  Suggested "light" defaults for S atom (to be pasted into control.in file)
  #  Be sure to double-check any results obtained with these settings for post-processing,
  #  e.g., with the "tight" defaults and larger basis sets.
  #
  ################################################################################
    species        S
  #     global species definitions
      nucleus             16
      mass                32.065
  #
      l_hartree           4
  #
      cut_pot             3.5          1.5  1.0
      basis_dep_cutoff    1e-4
  #
      radial_base         44 5.0
      radial_multiplier   1
      angular_grids       specified
        division   0.4665  110
        division   0.5810  194
        division   0.7139  302
  #      division   0.8274  434
  #      division   0.9105  590
  #      division   1.0975  770
  #      division   1.2028  974
  #      outer_grid  974
        outer_grid  302
  ################################################################################
  #
  #  Definition of "minimal" basis
  #
  ################################################################################
  #     valence basis states
      valence      3  s   2.
      valence      3  p   4.
  #     ion occupancy
      ion_occ      3  s   1.
      ion_occ      3  p   3.
  ################################################################################
  #
  #  Suggested additional basis functions. For production calculations,
  #  uncomment them one after another (the most important basis functions are
  #  listed first).
  #
  #  Constructed for dimers: 1.6 A, 1.9 A, 2.5 A, 3.25 A, 4.0 A
  #
  ################################################################################
  #  "First tier" - improvements: -652.81 meV to -45.53 meV
       ionic 3 d auto
       hydro 2 p 1.8
  #     hydro 4 f 7
       ionic 3 s auto
  #  "Second tier" - improvements: -30.20 meV to -1.74 meV
  #     hydro 4 d 6.2
  #     hydro 5 g 10.8
  #     hydro 4 p 4.9
  #     hydro 5 f 10
  #     hydro 1 s 0.8
  #  "Third tier" - improvements: -1.04 meV to -0.20 meV
  #     hydro 3 d 3.9
  #     hydro 3 d 2.7
  #     hydro 5 g 12
  #     hydro 4 p 10.4
  #     hydro 5 f 12.4
  #     hydro 2 s 1.9
  #  "Fourth tier" - improvements: -0.35 meV to -0.06 meV
  #     hydro 4 d 10.4
  #     hydro 4 p 7.2
  #     hydro 4 d 10
  #     hydro 5 g 19.2
  #     hydro 4 s 12
  
  ################################################################################
  #
  #  FHI-aims code project
  #  VB, Fritz-Haber Institut, 2009
  #
  #  Suggested "light" defaults for Cl atom (to be pasted into control.in file)
  #  Be sure to double-check any results obtained with these settings for post-processing,
  #  e.g., with the "tight" defaults and larger basis sets.
  #
  ################################################################################
    species        Cl
  #     global species definitions
      nucleus             17
      mass                35.453
  #
      l_hartree           4
  #
      cut_pot             3.5          1.5  1.0
      basis_dep_cutoff    1e-4
  #
      radial_base         45 5.0
      radial_multiplier   1
      angular_grids       specified
        division   0.4412  110
        division   0.5489  194
        division   0.6734  302
  #      division   0.7794  434
  #      division   0.9402  590
  #      division   1.0779  770
  #      division   1.1792  974
  #      outer_grid  974
        outer_grid  302
  ################################################################################
  #
  #  Definition of "minimal" basis
  #
  ################################################################################
  #     valence basis states
      valence      3  s   2.
      valence      3  p   5.
  #     ion occupancy
      ion_occ      3  s   1.
      ion_occ      3  p   4.
  ################################################################################
  #
  #  Suggested additional basis functions. For production calculations,
  #  uncomment them one after another (the most important basis functions are
  #  listed first).
  #
  #  Constructed for dimers: 1.65 A, 2.0 A, 2.5 A, 3.25 A, 4.0 A
  #
  ################################################################################
  #  "First tier" - improvements: -429.57 meV to -15.03 meV
       ionic 3 d auto
       hydro 2 p 1.9
  #     hydro 4 f 7.4
       ionic 3 s auto
  #     hydro 5 g 10.4
  #  "Second tier" - improvements: -7.84 meV to -0.48 meV
  #     hydro 3 d 3.3
  #     hydro 5 f 9.8
  #     hydro 1 s 0.75
  #     hydro 5 g 11.2
  #     hydro 4 p 10.4
  #  "Third tier" - improvements: -1.00 meV to -0.12 meV
  #     hydro 4 d 12.8
  #     hydro 4 f 4.6
  #     hydro 4 d 10.8
  #     hydro 2 s 1.8
  #     hydro 3 p 3
  #  Further functions that fell out - improvements: -0.10 meV and below
  #     hydro 5 f 14.4
  #     hydro 4 s 12.8
  #     hydro 3 d 11.6
  #     hydro 4 s 4.1
  
  -----------------------------------------------------------------------
  Completed first pass over input file control.in .
  -----------------------------------------------------------------------
  
  
  -----------------------------------------------------------------------
  Parsing geometry.in (first pass over file, find array dimensions only).
  The contents of geometry.in will be repeated verbatim below
  unless switched off by setting 'verbatim_writeout .false.' .
  in the first line of geometry.in .
  -----------------------------------------------------------------------
  
  #=======================================================
  # FHI-aims file: geometry.in.10
  # Created using the Atomic Simulation Environment (ASE)
  # Sat Jul 23 22:56:02 2022
  #=======================================================
  lattice_vector 9.8979997634999997 0.0000000000000000 0.0000000000000000
  lattice_vector 0.0000000000000000 9.8979997634999997 0.0000000000000000
  lattice_vector 0.0000000000000000 0.0000000000000000 9.8979997634999997
  atom 4.0717422900000004 1.9698280800000001 6.3107109499999998 Li
  atom 4.2106103499999996 -0.0798547200000000 2.5215466400000000 Li
  atom 7.0797725199999997 3.3502341900000001 0.4225287000000000 Li
  atom 6.4460136700000001 6.8517104000000000 -0.1033097600000000 Li
  atom 0.4409459500000000 6.3039426299999999 2.7492650200000002 Li
  atom 9.3565705799999996 6.5019816800000001 7.1168255000000000 Li
  atom 0.2714046500000000 2.5679257700000000 6.2400130200000001 Li
  atom 3.4087581700000000 7.0257504400000004 3.8747085700000001 Li
  atom 6.7422102300000004 8.2314600400000000 4.9378025599999997 Li
  atom 5.5828905500000001 2.4346995300000001 2.5606012400000000 Li
  atom 1.7529013200000001 9.1788890500000004 3.4573399500000002 Li
  atom 0.7148092300000000 2.4327315600000001 2.3834379100000000 Li
  atom 7.7789317200000001 0.0087605800000000 1.5397225600000000 Li
  atom 8.4357878700000004 10.1889802700000001 7.8906273300000001 Li
  atom 1.2551632300000000 8.8664213400000005 7.9691333699999998 Li
  atom 5.6261563800000003 6.1601851200000004 7.9630161499999996 Li
  atom 8.3679941800000002 5.5979286500000001 3.7302999400000001 Li
  atom 0.2372992800000000 9.2310017099999992 1.6759390900000000 Li
  atom 1.4132354600000001 2.1685996200000002 9.5183332899999993 Li
  atom 4.8028718699999997 7.6479935000000001 4.6637575599999996 Li
  atom 0.0081609400000000 -0.0117910800000000 4.9183067100000004 P
  atom 4.8929847700000000 0.0604535500000000 -0.1340192100000000 P
  atom 0.0510094800000000 4.9893822999999999 0.0778722500000000 P
  atom 5.0572051599999996 4.8714473600000003 4.8181855200000001 P
  atom 1.1506171900000000 8.6423898000000001 6.1007710299999998 S
  atom 8.5965499100000002 1.1064078399999999 6.0562356599999996 S
  atom 8.7270295299999994 8.6827929800000003 3.7217594799999998 S
  atom 1.2663170600000000 1.2297058400000000 3.8762679599999998 S
  atom 6.0772003500000000 1.2928268100000000 8.5947161600000008 S
  atom 6.0123846099999998 8.7370763300000007 1.0684056000000000 S
  atom 3.6762799500000001 8.7763089999999995 8.5710134799999995 S
  atom 3.6969616500000000 1.2906963800000000 0.9734614900000000 S
  atom 8.7234750499999993 5.9582073900000001 1.4445069200000000 S
  atom 1.0654511799999999 6.3104565099999999 8.8024172800000002 S
  atom 8.7537265499999997 3.7811655000000002 8.8385333399999997 S
  atom 1.4207658599999999 3.8797812999999999 1.1628748400000000 S
  atom 6.0818337600000003 6.2506537399999997 3.7186957999999999 S
  atom 6.3250500100000000 3.7921890700000001 6.0115254000000000 S
  atom 4.0858136099999998 3.6118473199999999 3.5268009100000000 S
  atom 3.6289256399999998 5.7602658299999998 6.0479883399999999 S
  atom 2.3668205900000001 2.4936749499999999 7.2540696999999996 Cl
  atom 7.3134333600000003 7.5393838000000004 7.4843314599999999 Cl
  atom 4.7367071799999998 -0.2327336200000000 4.8929528400000004 Cl
  atom 5.1615237900000004 5.0305814000000000 -0.2583427600000000 Cl
  atom -0.0497286300000000 0.2602403500000000 0.1663799400000000 Cl
  atom 0.0300422700000000 4.9570735299999997 5.0233017999999996 Cl
  atom 7.5963873000000000 2.3519079600000001 2.4720184900000000 Cl
  atom 2.4716053100000002 7.5248888599999999 2.4620893100000001 Cl
  
  -----------------------------------------------------------------------
  Completed first pass over input file geometry.in .
  -----------------------------------------------------------------------
  

  Basic array size parameters:
  | Number of species                 :        4
  | Number of atoms                   :       48
  | Number of lattice vectors         :        3
  | Max. basis fn. angular momentum   :        2
  | Max. atomic/ionic basis occupied n:        3
  | Max. number of basis fn. types    :        3
  | Max. radial fns per species/type  :        5
  | Max. logarithmic grid size        :     1362
  | Max. radial integration grid size :       45
  | Max. angular integration grid size:      302
  | Max. angular grid division number :        8
  | Radial grid for Hartree potential :     1362
  | Number of spin channels           :        1

------------------------------------------------------------
          Reading file control.in.
------------------------------------------------------------
  XC: Using PBE gradient-corrected functionals.
  Convergence accuracy of total energy:  0.1000E-05
  Convergence accuracy of sum of eigenvalues:  0.1000E-02
  Convergence accuracy of self-consistent charge density:  0.1000E-05
  Convergence accuracy of forces:  0.1000E-03
  Friction is calculated at temperature of   0.3000E+03 K
  Found k-point grid:         3         3         3
 
  Reading configuration options for species Li                  .
  | Found nuclear charge :   3.0000
  | Found atomic mass :    6.94100000000000      amu
  | Found l_max for Hartree potential  :   4
  | Found cutoff potl. onset [A], width [A], scale factor :    3.50000    1.50000    1.00000
  | Threshold for basis-dependent cutoff potential is   0.100000E-03
  | Found data for basic radial integration grid :    29 points, outermost radius =    5.000 A
  | Found multiplier for basic radial grid :   1
  | Found angular grid specification: user-specified.
  | Specified grid contains     4 separate shells.
  | Check grid settings after all constraints further below.
  | Found free-atom valence shell :  2 s   1.000
  | Found free-ion valence shell :  1 s   2.000
  | Found hydrogenic basis function :  2 p   1.600
  | Found hydrogenic basis function :  2 s   2.000
  | Found hydrogenic basis function :  3 d   2.600
  Species Li                  : Missing cutoff potential type.
  Defaulting to exp(1/x)/(1-x)^2 type cutoff potential.
  Species Li: No 'logarithmic' tag. Using default grid for free atom:
  | Default logarithmic grid data [bohr] : 0.1000E-03 0.1000E+03 0.1012E+01
  Species Li: On-site basis accuracy parameter (for Gram-Schmidt orthonormalisation) not specified.
  Using default value basis_acc =  0.1000000E-03.
  Species Li                  : Using default innermost maximum threshold i_radial=  2 for radial functions.
  Species Li                  : Default cutoff onset for free atom density etc. : 0.35000000E+01 AA.
  Species Li                  : Basic radial grid will be enhanced according to radial_multiplier =   1, to contain    29 grid points.
 
  Reading configuration options for species P                   .
  | Found nuclear charge :  15.0000
  | Found atomic mass :    30.9737620000000      amu
  | Found l_max for Hartree potential  :   4
  | Found cutoff potl. onset [A], width [A], scale factor :    3.50000    1.50000    1.00000
  | Threshold for basis-dependent cutoff potential is   0.100000E-03
  | Found data for basic radial integration grid :    43 points, outermost radius =    5.000 A
  | Found multiplier for basic radial grid :   1
  | Found angular grid specification: user-specified.
  | Specified grid contains     5 separate shells.
  | Check grid settings after all constraints further below.
  | Found free-atom valence shell :  3 s   2.000
  | Found free-atom valence shell :  3 p   3.000
  | Found free-ion valence shell :  3 s   1.000
  | Found free-ion valence shell :  3 p   2.000
  | Found ionic basis function :  3 d , default cutoff radius.
  | Found ionic basis function :  3 p , default cutoff radius.
  | Found ionic basis function :  3 s , default cutoff radius.
  Species P                   : Missing cutoff potential type.
  Defaulting to exp(1/x)/(1-x)^2 type cutoff potential.
  Species P : No 'logarithmic' tag. Using default grid for free atom:
  | Default logarithmic grid data [bohr] : 0.1000E-03 0.1000E+03 0.1012E+01
  | Will include ionic basis functions of  2.0-fold positive P                    ion.
  Species P : On-site basis accuracy parameter (for Gram-Schmidt orthonormalisation) not specified.
  Using default value basis_acc =  0.1000000E-03.
  Species P                   : Using default innermost maximum threshold i_radial=  2 for radial functions.
  Species P                   : Default cutoff onset for free atom density etc. : 0.35000000E+01 AA.
  Species P                   : Basic radial grid will be enhanced according to radial_multiplier =   1, to contain    43 grid points.
 
  Reading configuration options for species S                   .
  | Found nuclear charge :  16.0000
  | Found atomic mass :    32.0650000000000      amu
  | Found l_max for Hartree potential  :   4
  | Found cutoff potl. onset [A], width [A], scale factor :    3.50000    1.50000    1.00000
  | Threshold for basis-dependent cutoff potential is   0.100000E-03
  | Found data for basic radial integration grid :    44 points, outermost radius =    5.000 A
  | Found multiplier for basic radial grid :   1
  | Found angular grid specification: user-specified.
  | Specified grid contains     4 separate shells.
  | Check grid settings after all constraints further below.
  | Found free-atom valence shell :  3 s   2.000
  | Found free-atom valence shell :  3 p   4.000
  | Found free-ion valence shell :  3 s   1.000
  | Found free-ion valence shell :  3 p   3.000
  | Found ionic basis function :  3 d , default cutoff radius.
  | Found hydrogenic basis function :  2 p   1.800
  | Found ionic basis function :  3 s , default cutoff radius.
  Species S                   : Missing cutoff potential type.
  Defaulting to exp(1/x)/(1-x)^2 type cutoff potential.
  Species S : No 'logarithmic' tag. Using default grid for free atom:
  | Default logarithmic grid data [bohr] : 0.1000E-03 0.1000E+03 0.1012E+01
  | Will include ionic basis functions of  2.0-fold positive S                    ion.
  Species S : On-site basis accuracy parameter (for Gram-Schmidt orthonormalisation) not specified.
  Using default value basis_acc =  0.1000000E-03.
  Species S                   : Using default innermost maximum threshold i_radial=  2 for radial functions.
  Species S                   : Default cutoff onset for free atom density etc. : 0.35000000E+01 AA.
  Species S                   : Basic radial grid will be enhanced according to radial_multiplier =   1, to contain    44 grid points.
 
  Reading configuration options for species Cl                  .
  | Found nuclear charge :  17.0000
  | Found atomic mass :    35.4530000000000      amu
  | Found l_max for Hartree potential  :   4
  | Found cutoff potl. onset [A], width [A], scale factor :    3.50000    1.50000    1.00000
  | Threshold for basis-dependent cutoff potential is   0.100000E-03
  | Found data for basic radial integration grid :    45 points, outermost radius =    5.000 A
  | Found multiplier for basic radial grid :   1
  | Found angular grid specification: user-specified.
  | Specified grid contains     4 separate shells.
  | Check grid settings after all constraints further below.
  | Found free-atom valence shell :  3 s   2.000
  | Found free-atom valence shell :  3 p   5.000
  | Found free-ion valence shell :  3 s   1.000
  | Found free-ion valence shell :  3 p   4.000
  | Found ionic basis function :  3 d , default cutoff radius.
  | Found hydrogenic basis function :  2 p   1.900
  | Found ionic basis function :  3 s , default cutoff radius.
  Species Cl                  : Missing cutoff potential type.
  Defaulting to exp(1/x)/(1-x)^2 type cutoff potential.
  Species Cl: No 'logarithmic' tag. Using default grid for free atom:
  | Default logarithmic grid data [bohr] : 0.1000E-03 0.1000E+03 0.1012E+01
  | Will include ionic basis functions of  2.0-fold positive Cl                   ion.
  Species Cl: On-site basis accuracy parameter (for Gram-Schmidt orthonormalisation) not specified.
  Using default value basis_acc =  0.1000000E-03.
  Species Cl                  : Using default innermost maximum threshold i_radial=  2 for radial functions.
  Species Cl                  : Default cutoff onset for free atom density etc. : 0.35000000E+01 AA.
  Species Cl                  : Basic radial grid will be enhanced according to radial_multiplier =   1, to contain    45 grid points.
 
  Finished reading input file 'control.in'. Consistency checks are next.
 
  MPI_IN_PLACE appears to work with this MPI implementation.
  | Keeping use_mpi_in_place .true. (see manual).
  Target number of points in a grid batch is not set. Defaulting to  100
  Method for grid partitioning is not set. Defaulting to parallel hash+maxmin partitioning.
  Batch size limit is not set. Defaulting to    200
  By default, will store active basis functions for each batch.
  If in need of memory, prune_basis_once .false. can be used to disable this option.
  communication_type for Hartree potential was not specified.
  Defaulting to calc_hartree .
  Defaulting to Pulay charge density mixer.
  Pulay mixer: Number of relevant iterations not set.
  Defaulting to    8 iterations.
  Pulay mixer: Number of initial linear mixing iterations not set.
  Defaulting to    0 iterations.
  Work space size for distributed Hartree potential not set.
  Defaulting to   0.200000E+03 MB.
  Mixing parameter for charge density mixing has not been set.
  Using default: charge_mix_param =     0.0500.
  The mixing parameter will be adjusted in iteration number     2 of the first full s.c.f. cycle only.
  Algorithm-dependent basis array size parameters:
  | n_max_pulay                         :        8
  Maximum number of self-consistency iterations not provided.
  Presetting  1000 iterations.
  Presetting      1001 iterations before the initial mixing cycle
  is restarted anyway using the sc_init_iter criterion / keyword.
  Presetting a factor      1.000 between actual scf density residual
  and density convergence criterion sc_accuracy_rho below which sc_init_iter
  takes no effect.
  Geometry relaxation not requested: no relaxation will be performed.
  Handling of forces: Unphysical translation and rotation will be removed from forces.
  No accuracy limit for integral partition fn. given. Defaulting to  0.1000E-14.
  No threshold value for u(r) in integrations given. Defaulting to  0.1000E-05.
  No occupation type (smearing scheme) given. Defaulting to Gaussian broadening, width =  0.1000E-01 eV.
  The width will be adjusted in iteration number     2 of the first full s.c.f. cycle only.
  S.C.F. convergence parameters will be adjusted in iteration number     2 of the first full s.c.f. cycle only.
  No accuracy for occupation numbers given. Defaulting to  0.1000E-12.
  No threshold value for occupation numbers given. Defaulting to  0.0000E+00.
  No accuracy for fermi level given. Defaulting to  0.1000E-19.
  Maximum # of iterations to find E_F not set. Defaulting to  200.
  Preferred method for the eigenvalue solver ('KS_method') not specified in 'control.in'.
  Defaulting to serial version, 'lapack_fast', since more k-points than CPUs available.
  Will not use alltoall communication since running on < 1024 CPUs.
  Threshold for basis singularities not set.
  Default threshold for basis singularities:  0.1000E-04
  partition_type (choice of integration weights) for integrals was not specified.
  | Using a version of the partition function of Stratmann and coworkers ('stratmann_smoother').
  | At each grid point, the set of atoms used to build the partition table is smoothly restricted to
  | only those atoms whose free-atom density would be non-zero at that grid point.
  Partitioning for Hartree potential was not defined. Using partition_type for integrals.
  | Adjusted default value of keyword multip_moments_threshold to:       0.10000000E-11
  | This value may affect high angular momentum components of the Hartree potential in periodic systems.
  Spin handling was not defined in control.in. Defaulting to unpolarized case.
  Angular momentum expansion for Kerker preconditioner not set explicitly.
  | Using default value of   0
  No explicit requirement for turning off preconditioner.
  | By default, it will be turned off when the charge convergence reaches
  | sc_accuracy_rho  =   0.100000E-05
  | sc_accuracy_eev  =   0.100000E-02
  | sc_accuracy_etot =   0.100000E-05
  No special mixing parameter while Kerker preconditioner is on.
  Using default: charge_mix_param =     0.0500.
  No q(lm)/r^(l+1) cutoff set for long-range Hartree potential.
  | Using default value of  0.100000E-09 .
  | Verify using the multipole_threshold keyword.
  Defaulting to new monopole extrapolation.
  Density update method: automatic selection selected.
  Using density matrix based charge density update.
  Using density matrix based charge density update.
  Using packed matrix style: index .
  Defaulting to use time-reversal symmetry for k-point grid.
------------------------------------------------------------


------------------------------------------------------------
          Reading geometry description geometry.in.
------------------------------------------------------------
 * Warning! You did not set the 'relativistic' flag in input file 'control.in'.
 * Since you are not attempting to treat any elements beyond Ca(Z=20), FHI-aims
 * will default to 'relativistic none'.
 * You must ensure that this is really what you want!!
 * For example, DO NOT compute total-energy differences between results from
 * different settings of the 'relativistic' flag.
  Input structure read successfully.
  The structure contains       48 atoms,  and a total of        512.000 electrons.

  Input geometry:
  | Unit cell:
  |        9.89799976        0.00000000        0.00000000
  |        0.00000000        9.89799976        0.00000000
  |        0.00000000        0.00000000        9.89799976
  | Atomic structure:
  |       Atom                x [A]            y [A]            z [A]
  |    1: Species Li            4.07174229        1.96982808        6.31071095
  |    2: Species Li            4.21061035       -0.07985472        2.52154664
  |    3: Species Li            7.07977252        3.35023419        0.42252870
  |    4: Species Li            6.44601367        6.85171040       -0.10330976
  |    5: Species Li            0.44094595        6.30394263        2.74926502
  |    6: Species Li            9.35657058        6.50198168        7.11682550
  |    7: Species Li            0.27140465        2.56792577        6.24001302
  |    8: Species Li            3.40875817        7.02575044        3.87470857
  |    9: Species Li            6.74221023        8.23146004        4.93780256
  |   10: Species Li            5.58289055        2.43469953        2.56060124
  |   11: Species Li            1.75290132        9.17888905        3.45733995
  |   12: Species Li            0.71480923        2.43273156        2.38343791
  |   13: Species Li            7.77893172        0.00876058        1.53972256
  |   14: Species Li            8.43578787       10.18898027        7.89062733
  |   15: Species Li            1.25516323        8.86642134        7.96913337
  |   16: Species Li            5.62615638        6.16018512        7.96301615
  |   17: Species Li            8.36799418        5.59792865        3.73029994
  |   18: Species Li            0.23729928        9.23100171        1.67593909
  |   19: Species Li            1.41323546        2.16859962        9.51833329
  |   20: Species Li            4.80287187        7.64799350        4.66375756
  |   21: Species P             0.00816094       -0.01179108        4.91830671
  |   22: Species P             4.89298477        0.06045355       -0.13401921
  |   23: Species P             0.05100948        4.98938230        0.07787225
  |   24: Species P             5.05720516        4.87144736        4.81818552
  |   25: Species S             1.15061719        8.64238980        6.10077103
  |   26: Species S             8.59654991        1.10640784        6.05623566
  |   27: Species S             8.72702953        8.68279298        3.72175948
  |   28: Species S             1.26631706        1.22970584        3.87626796
  |   29: Species S             6.07720035        1.29282681        8.59471616
  |   30: Species S             6.01238461        8.73707633        1.06840560
  |   31: Species S             3.67627995        8.77630900        8.57101348
  |   32: Species S             3.69696165        1.29069638        0.97346149
  |   33: Species S             8.72347505        5.95820739        1.44450692
  |   34: Species S             1.06545118        6.31045651        8.80241728
  |   35: Species S             8.75372655        3.78116550        8.83853334
  |   36: Species S             1.42076586        3.87978130        1.16287484
  |   37: Species S             6.08183376        6.25065374        3.71869580
  |   38: Species S             6.32505001        3.79218907        6.01152540
  |   39: Species S             4.08581361        3.61184732        3.52680091
  |   40: Species S             3.62892564        5.76026583        6.04798834
  |   41: Species Cl            2.36682059        2.49367495        7.25406970
  |   42: Species Cl            7.31343336        7.53938380        7.48433146
  |   43: Species Cl            4.73670718       -0.23273362        4.89295284
  |   44: Species Cl            5.16152379        5.03058140       -0.25834276
  |   45: Species Cl           -0.04972863        0.26024035        0.16637994
  |   46: Species Cl            0.03004227        4.95707353        5.02330180
  |   47: Species Cl            7.59638730        2.35190796        2.47201849
  |   48: Species Cl            2.47160531        7.52488886        2.46208931

  Lattice parameters for 3D lattice (in Angstroms) :     9.898000    9.898000    9.898000
  Angle(s) between unit vectors (in degrees)      :    90.000000   90.000000   90.000000

  |

  | The smallest distance between any two atoms is         1.71852778 AA.
  |
  | The first atom of this pair is atom number                      8 .
  | The second atom of this pair is atom number                    20 .
  | Wigner-Seitz cell of the first atom image           0     0     0 .
  | (The Wigner-Seitz cell of the second atom is 0 0 0  by definition.)

  Symmetry information by spglib:
  | Precision set to  0.1E-04
  | Number of Operations  : 1
  | Space group           : 1
  | International         : P1  O
  | Schoenflies           : C1^1

  Quantities derived from the lattice vectors:
  | Reciprocal lattice vector 1:  0.634793  0.000000  0.000000
  | Reciprocal lattice vector 2:  0.000000  0.634793  0.000000
  | Reciprocal lattice vector 3:  0.000000  0.000000  0.634793
  | Unit cell volume                               :   0.969711E+03  A^3

  Range separation radius for Ewald summation (hartree_convergence_parameter):      3.90166475 bohr.

  Fractional coordinates:
                         L1                L2                L3
       atom_frac         0.41137021        0.19901274        0.63757437  Li
       atom_frac         0.42540013       -0.00806776        0.25475315  Li
       atom_frac         0.71527305        0.33847588        0.04268829  Li
       atom_frac         0.65124407        0.69223182       -0.01043744  Li
       atom_frac         0.04454900        0.63689056        0.27775966  Li
       atom_frac         0.94529913        0.65689855        0.71901654  Li
       atom_frac         0.02742015        0.25943886        0.63043172  Li
       atom_frac         0.34438859        0.70981518        0.39146380  Li
       atom_frac         0.68116896        0.83162864        0.49886873  Li
       atom_frac         0.56404230        0.24597894        0.25869886  Li
       atom_frac         0.17709652        0.92734788        0.34929683  Li
       atom_frac         0.07221754        0.24578012        0.24079996  Li
       atom_frac         0.78590947        0.00088509        0.15555896  Li
       atom_frac         0.85227198        1.02939791        0.79719413  Li
       atom_frac         0.12680979        0.89577910        0.80512564  Li
       atom_frac         0.56841347        0.62236667        0.80450761  Li
       atom_frac         0.84542275        0.56556161        0.37687412  Li
       atom_frac         0.02397447        0.93261284        0.16932099  Li
       atom_frac         0.14277990        0.21909473        0.96164210  Li
       atom_frac         0.48523661        0.77268071        0.47118182  Li
       atom_frac         0.00082450       -0.00119126        0.49689905  P
       atom_frac         0.49434076        0.00610765       -0.01354003  P
       atom_frac         0.00515351        0.50407986        0.00786747  P
       atom_frac         0.51093203        0.49216483        0.48678376  P
       atom_frac         0.11624745        0.87314508        0.61636403  S
       atom_frac         0.86851385        0.11178095        0.61186460  S
       atom_frac         0.88169628        0.87722703        0.37601127  S
       atom_frac         0.12793666        0.12423781        0.39162134  S
       atom_frac         0.61398267        0.13061496        0.86832859  S
       atom_frac         0.60743431        0.88271131        0.10794157  S
       atom_frac         0.37141645        0.88667501        0.86593389  S
       atom_frac         0.37350593        0.13039972        0.09834931  S
       atom_frac         0.88133716        0.60196075        0.14593928  S
       atom_frac         0.10764308        0.63754866        0.88931274  S
       atom_frac         0.88439349        0.38201309        0.89296156  S
       atom_frac         0.14354070        0.39197630        0.11748584  S
       atom_frac         0.61445079        0.63150676        0.37570175  S
       atom_frac         0.63902305        0.38312681        0.60734750  S
       atom_frac         0.41279185        0.36490679        0.35631451  S
       atom_frac         0.36663222        0.58196262        0.61103137  S
       atom_frac         0.23912110        0.25193726        0.73288239  Cl
       atom_frac         0.73887993        0.76170782        0.75614585  Cl
       atom_frac         0.47855196       -0.02351320        0.49433754  Cl
       atom_frac         0.52147140        0.50824222       -0.02610050  Cl
       atom_frac        -0.00502411        0.02629222        0.01680945  Cl
       atom_frac         0.00303519        0.50081568        0.50750676  Cl
       atom_frac         0.76746691        0.23761447        0.24974930  Cl
       atom_frac         0.24970755        0.76024339        0.24874615  Cl

  Number of empty states per atom not set in control.in - providing a guess from actual geometry.
  | Total number of empty states used during s.c.f. cycle:      114
  If you use a very high smearing, use empty_states (per atom!) in control.in to increase this value.

  Structure-dependent array size parameters: 
  | Maximum number of distinct radial functions  :       29
  | Maximum number of basis functions            :      724
  | Number of Kohn-Sham states (occupied + empty):      370
------------------------------------------------------------

------------------------------------------------------------
          Preparing all fixed parts of the calculation.
------------------------------------------------------------
  Determining machine precision:
    2.225073858507201E-308
  Setting up grids for atomic and cluster calculations.

  Creating wave function, potential, and density for free atoms.

  Species: Li

  List of occupied orbitals and eigenvalues:
    n    l              occ      energy [Ha]    energy [eV]
    1    0           2.0000        -1.876896       -51.0729
    2    0           1.0000        -0.084105        -2.2886


  Species: P

  List of occupied orbitals and eigenvalues:
    n    l              occ      energy [Ha]    energy [eV]
    1    0           2.0000       -76.351489     -2077.6297
    2    0           2.0000        -6.353717      -172.8934
    3    0           2.0000        -0.506059       -13.7706
    2    1           6.0000        -4.569386      -124.3393
    3    1           3.0000        -0.198107        -5.3908


  Species: S

  List of occupied orbitals and eigenvalues:
    n    l              occ      energy [Ha]    energy [eV]
    1    0           2.0000       -88.105825     -2397.4815
    2    0           2.0000        -7.730144      -210.3479
    3    0           2.0000        -0.627748       -17.0819
    2    1           6.0000        -5.747971      -156.4103
    3    1           4.0000        -0.255786        -6.9603


  Species: Cl

  List of occupied orbitals and eigenvalues:
    n    l              occ      energy [Ha]    energy [eV]
    1    0           2.0000      -100.709620     -2740.4482
    2    0           2.0000        -9.221874      -250.9399
    3    0           2.0000        -0.753366       -20.5001
    2    1           6.0000        -7.038743      -191.5339
    3    1           5.0000        -0.315359        -8.5813

  Creating fixed part of basis set: Ionic, confined, hydrogenic.
 
  Li                   hydrogenic:
 
  List of hydrogenic basis orbitals: 
    n    l      effective z      eigenvalue [eV]  inner max. [A]     outer max. [A]     outer radius [A]   
    2    1         1.600000        -8.6069           1.303334           1.303334           4.591005
    2    0         2.000000       -13.5631           0.203259           1.385485           4.591005
    3    2         2.600000        -9.9241           1.769240           1.769240           4.591005
 
 
  P                    ion:

  List of free ionic orbitals and eigenvalues:
    n    l      energy [Ha]    energy [eV]
    1    0       -77.297133     -2103.3620
    2    0        -7.273914      -197.9333
    3    0        -1.267536       -34.4914
    2    1        -5.491316      -149.4263
    3    1        -0.913470       -24.8568


  List of ionic basis orbitals and eigenvalues:
    n    l      energy [Ha]    energy [eV]    outer radius [A]
    3    2        -0.457308       -12.4440       4.554583
    3    1        -0.913443       -24.8560       4.337222
    3    0        -1.267519       -34.4910       3.885335

 
  S                    ion:

  List of free ionic orbitals and eigenvalues:
    n    l      energy [Ha]    energy [eV]
    1    0       -89.127201     -2425.2745
    2    0        -8.724378      -237.4024
    3    0        -1.464668       -39.8556
    2    1        -6.744348      -183.5230
    3    1        -1.048520       -28.5317


  List of ionic basis orbitals and eigenvalues:
    n    l      energy [Ha]    energy [eV]    outer radius [A]
    3    2        -0.496135       -13.5005       4.539062
    3    0        -1.464653       -39.8552       3.642502

 
  S                    hydrogenic:
 
  List of hydrogenic basis orbitals: 
    n    l      effective z      eigenvalue [eV]  inner max. [A]     outer max. [A]     outer radius [A]   
    2    1         1.800000       -10.9749           1.168531           1.168531           4.594893
 
 
  Cl                   ion:

  List of free ionic orbitals and eigenvalues:
    n    l      energy [Ha]    energy [eV]
    1    0      -101.807232     -2770.3157
    2    0       -10.290876      -280.0290
    3    0        -1.664625       -45.2967
    2    1        -8.110237      -220.6908
    3    1        -1.183915       -32.2160


  List of ionic basis orbitals and eigenvalues:
    n    l      energy [Ha]    energy [eV]    outer radius [A]
    3    2        -0.529186       -14.3999       4.541334
    3    0        -1.664610       -45.2963       3.428237

 
  Cl                   hydrogenic:
 
  List of hydrogenic basis orbitals: 
    n    l      effective z      eigenvalue [eV]  inner max. [A]     outer max. [A]     outer radius [A]   
    2    1         1.900000       -12.2492           1.113321           1.113321           4.597192
 

  Adding cutoff potential to free-atom effective potential.
  Creating atomic-like basis functions for current effective potential.

  Species Li                  :

  List of atomic basis orbitals and eigenvalues:
    n    l      energy [Ha]    energy [eV]    outer radius [A]
    1    0        -1.876896       -51.0729       4.062706
    2    0        -0.084105        -2.2886       4.591005


  Species P                   :

  List of atomic basis orbitals and eigenvalues:
    n    l      energy [Ha]    energy [eV]    outer radius [A]
    1    0       -76.351489     -2077.6297       0.736837
    2    0        -6.353717      -172.8934       2.532824
    3    0        -0.506059       -13.7706       4.499242
    2    1        -4.569386      -124.3393       2.862183
    3    1        -0.198107        -5.3908       4.554583


  Species S                   :

  List of atomic basis orbitals and eigenvalues:
    n    l      energy [Ha]    energy [eV]    outer radius [A]
    1    0       -88.105825     -2397.4815       0.682391
    2    0        -7.730144      -210.3479       2.317169
    3    0        -0.627748       -17.0819       4.483910
    2    1        -5.747971      -156.4103       2.555240
    3    1        -0.255786        -6.9603       4.539062


  Species Cl                  :

  List of atomic basis orbitals and eigenvalues:
    n    l      energy [Ha]    energy [eV]    outer radius [A]
    1    0      -100.709620     -2740.4482       0.642251
    2    0        -9.221874      -250.9399       2.128190
    3    0        -0.753366       -20.5001       4.431645
    2    1        -7.038743      -191.5339       2.346844
    3    1        -0.315359        -8.5813       4.541334

  Assembling full basis from fixed parts.
  | Species Li :   atomic orbital   1 s accepted.
  | Species Li :   atomic orbital   2 s accepted.
  | Species Li :    hydro orbital   2 s accepted.
  | Species Li :    hydro orbital   2 p accepted.
  | Species Li :    hydro orbital   3 d accepted.
  | Species P :   atomic orbital   1 s accepted.
  | Species P :   atomic orbital   2 s accepted.
  | Species P :    ionic orbital   3 s accepted.
  | Species P :   atomic orbital   3 s accepted.
  | Species P :   atomic orbital   2 p accepted.
  | Species P :    ionic orbital   3 p accepted.
  | Species P :   atomic orbital   3 p accepted.
  | Species P :    ionic orbital   3 d accepted.
  | Species S :   atomic orbital   1 s accepted.
  | Species S :   atomic orbital   2 s accepted.
  | Species S :    ionic orbital   3 s accepted.
  | Species S :   atomic orbital   3 s accepted.
  | Species S :   atomic orbital   2 p accepted.
  | Species S :   atomic orbital   3 p accepted.
  | Species S :    hydro orbital   2 p accepted.
  | Species S :    ionic orbital   3 d accepted.
  | Species Cl :   atomic orbital   1 s accepted.
  | Species Cl :   atomic orbital   2 s accepted.
  | Species Cl :    ionic orbital   3 s accepted.
  | Species Cl :   atomic orbital   3 s accepted.
  | Species Cl :   atomic orbital   2 p accepted.
  | Species Cl :   atomic orbital   3 p accepted.
  | Species Cl :    hydro orbital   2 p accepted.
  | Species Cl :    ionic orbital   3 d accepted.
 
  Basis size parameters after reduction:
  | Total number of radial functions:       29
  | Total number of basis functions :      724
 
  Per-task memory consumption for arrays in subroutine allocate_ext:
  |           7.605768MB.
  Testing on-site integration grid accuracy.
  |  Species  Function  <phi|h_atom|phi> (log., in eV)  <phi|h_atom|phi> (rad., in eV)
           1        1                -51.0729407432                -51.0729328795
           1        2                 -2.3261068990                 -2.3227046518
           1        3                 17.1966930198                 17.2358027191 ***
           1        4                  0.3867256281                  0.3982841734
           1        5                  6.2743141416                  6.2817896417
           2        6              -2077.6297159538              -2077.6288551184
           2        7               -172.8934457906               -172.8934403880
           2        8                -13.4653967551                -13.4655200798
           2        9                  6.4162845277                  6.4013396720
           2       10               -124.3393201040               -124.3393200061
           2       11                 -4.7560266034                 -4.7560495157
           2       12                  6.5873401476                  6.4958904717 ***
           2       13                  5.2911719464                  5.2826493609
           3       14              -2397.4814915323              -2397.4804563634
           3       15               -210.3479335736               -210.3479265952
           3       16                -16.8079362322                -16.8079092816
           3       17                  7.5772439785                  7.5675998324
           3       18               -156.4102581151               -156.4102580951
           3       19                 -6.9617737483                 -6.9640288036
           3       20                  7.5696988470                  7.5151244831 ***
           3       21                  6.0973034823                  6.0928113248
           4       22              -2740.4481953768              -2740.4469735573
           4       23               -250.9399497423               -250.9399403187
           4       24                -20.2462734235                -20.2462512680
           4       25                  8.9460051782                  8.9510436705
           4       26               -191.5339459398               -191.5339455009
           4       27                 -8.5819075957                 -8.5827488985
           4       28                  8.1339828089                  8.0979459360 ***
           4       29                  7.0302175114                  7.0277664253
 * Note: Onsite integrals marked "***" above are less accurate than
 * onsite_accuracy_threshold =    0.03000 eV. Usually, this is harmless.
 * When in doubt, tighten the "radial" and/or "radial_multiplier" flags to check.

  Preparing densities etc. for the partition functions (integrals / Hartree potential).

  Preparations completed.
  max(cpu_time)          :      0.412 s.
  Wall clock time (cpu1) :      0.421 s.
------------------------------------------------------------

------------------------------------------------------------
          Begin self-consistency loop: Initialization.

          Date     :  20220723, Time     :  171549.317
------------------------------------------------------------

  Initializing index lists of integration centers etc. from given atomic structure:
  Mapping all atomic coordinates to central unit cell.

  Initializing the k-points
          Using symmetry for reducing the k-points
  | k-points reduced from:       27 to       14
  | Number of k-points                             :        14
  The eigenvectors in the calculations are COMPLEX.
  | K-points in task   0:         0
  | K-points in task   1:         1
  | K-points in task   2:         1
  | K-points in task   3:         1
  | K-points in task   4:         1
  | K-points in task   5:         1
  | K-points in task   6:         1
  | K-points in task   7:         1
  | K-points in task   8:         1
  | K-points in task   9:         1
  | K-points in task  10:         1
  | K-points in task  11:         1
  | K-points in task  12:         1
  | K-points in task  13:         1
  | K-points in task  14:         1
  | K-points in task  15:         0
  | K-points in task  16:         0
  | K-points in task  17:         0
  | K-points in task  18:         0
  | K-points in task  19:         0
  | Number of basis functions in the Hamiltonian integrals :      3928
  | Number of basis functions in a single unit cell        :       724
  | Number of centers in hartree potential         :      1730
  | Number of centers in hartree multipole         :       917
  | Number of centers in electron density summation:       725
  | Number of centers in basis integrals           :       756
  | Number of centers in integrals                 :       337
  | Number of centers in hamiltonian               :       729
  | Consuming          6 KiB for k_phase.
  | Number of super-cells (origin) [n_cells]                     :         125
  | Number of super-cells (after PM_index) [n_cells]             :          28
  | Number of super-cells in hamiltonian [n_cells_in_hamiltonian]:          28
  | Size of matrix packed + index [n_hamiltonian_matrix_size] :      740261
  Partitioning the integration grid into batches with parallel hashing+maxmin method.
  | Number of batches:     4479
  | Maximal batch size:     164
  | Minimal batch size:      60
  | Average batch size:      80.221
  | Standard deviation of batch sizes:      12.564

  Integration load balanced across    20 MPI tasks.
  Work distribution over tasks is as follows:
  Task     0 has      17992 integration points.
  Task     1 has      17945 integration points.
  Task     2 has      17968 integration points.
  Task     3 has      17936 integration points.
  Task     4 has      17925 integration points.
  Task     5 has      17984 integration points.
  Task     6 has      17960 integration points.
  Task     7 has      17947 integration points.
  Task     8 has      17966 integration points.
  Task     9 has      17971 integration points.
  Task    10 has      17975 integration points.
  Task    11 has      17968 integration points.
  Task    12 has      18002 integration points.
  Task    13 has      17962 integration points.
  Task    14 has      17963 integration points.
  Task    15 has      17936 integration points.
  Task    16 has      17960 integration points.
  Task    17 has      17992 integration points.
  Task    18 has      17985 integration points.
  Task    19 has      17975 integration points.
  Initializing partition tables, free-atom densities, potentials, etc. across the integration grid (initialize_grid_storage).
  | initialize_grid_storage: Actual outermost partition radius vs. multipole_radius_free
  | (-- VB: in principle, multipole_radius_free should be larger, hence this output)
  | Species        1: Confinement radius =              4.999999999999999 AA, multipole_radius_free =              5.001180127821857 AA.
  | Species        1: outer_partition_radius set to              5.001180127821857 AA .
  | Species        2: Confinement radius =              4.999999999999999 AA, multipole_radius_free =              5.022530438398565 AA.
  | Species        2: outer_partition_radius set to              5.022530438398565 AA .
  | Species        3: Confinement radius =              4.999999999999999 AA, multipole_radius_free =              5.005414751018925 AA.
  | Species        3: outer_partition_radius set to              5.005414751018925 AA .
  | Species        4: Confinement radius =              4.999999999999999 AA, multipole_radius_free =              5.007919576009533 AA.
  | Species        4: outer_partition_radius set to              5.007919576009533 AA .
  | Original list of interatomic distances with         756 x        756 entries is created.
  | Net number of integration points:   359312
  | of which are non-zero points    :   323661
  | Numerical average free-atom electrostatic potential    :     -9.55337878 eV
  Renormalizing the initial density to the exact electron count on the 3D integration grid.
  | Initial density: Formal number of electrons (from input files) :     512.0000000000
  | Integrated number of electrons on 3D grid     :     511.9990557078
  | Charge integration error                      :      -0.0009442922
  | Normalization factor for density and gradient :       1.0000018443
  Obtaining max. number of non-zero basis functions in each batch (get_n_compute_maxes).
  | Maximal number of non-zero basis functions:      428 in task     0
  | Maximal number of non-zero basis functions:      434 in task     1
  | Maximal number of non-zero basis functions:      417 in task     2
  | Maximal number of non-zero basis functions:      430 in task     3
  | Maximal number of non-zero basis functions:      454 in task     4
  | Maximal number of non-zero basis functions:      442 in task     5
  | Maximal number of non-zero basis functions:      432 in task     6
  | Maximal number of non-zero basis functions:      454 in task     7
  | Maximal number of non-zero basis functions:      419 in task     8
  | Maximal number of non-zero basis functions:      437 in task     9
  | Maximal number of non-zero basis functions:      430 in task    10
  | Maximal number of non-zero basis functions:      426 in task    11
  | Maximal number of non-zero basis functions:      429 in task    12
  | Maximal number of non-zero basis functions:      416 in task    13
  | Maximal number of non-zero basis functions:      430 in task    14
  | Maximal number of non-zero basis functions:      425 in task    15
  | Maximal number of non-zero basis functions:      439 in task    16
  | Maximal number of non-zero basis functions:      419 in task    17
  | Maximal number of non-zero basis functions:      436 in task    18
  | Maximal number of non-zero basis functions:      419 in task    19
  Allocating        0.000 MB for KS_eigenvector_complex
  Integrating Hamiltonian matrix: batch-based integration.
  Time summed over all CPUs for integration: real work       13.040 s, elapsed       13.229 s
  Integrating overlap matrix.
  Time summed over all CPUs for integration: real work        8.847 s, elapsed        8.946 s
  Decreasing sparse matrix size:
   Tolerance:  9.999999824516700E-014
   Hamiltonian matrix
  | Array has   658272 nonzero elements out of   740261 elements
  | Sparsity factor is 0.111
   Overlap matrix
  | Array has   616676 nonzero elements out of   740261 elements
  | Sparsity factor is 0.167
  New size of hamiltonian matrix:      658274

  Updating Kohn-Sham eigenvalues and eigenvectors using ELSI and the ELPA eigensolver.

  Obtaining occupation numbers and chemical potential using ELSI.
  | Chemical potential (Fermi level):    -7.26623041eV
  Writing Kohn-Sham eigenvalues.
  K-point:       1 at    0.000000    0.000000    0.000000 (in units of recip. lattice)

  State    Occupation    Eigenvalue [Ha]    Eigenvalue [eV]
      1       2.00000        -100.767236        -2742.01600
      2       2.00000        -100.755026        -2741.68375
      3       2.00000        -100.739109        -2741.25062
      4       2.00000        -100.738883        -2741.24448
      5       2.00000        -100.738692        -2741.23928
      6       2.00000        -100.736829        -2741.18859
      7       2.00000        -100.733285        -2741.09215
      8       2.00000        -100.729688        -2740.99426
      9       2.00000         -88.152218        -2398.74389
     10       2.00000         -88.145393        -2398.55818
     11       2.00000         -88.143437        -2398.50495
     12       2.00000         -88.143216        -2398.49894
     13       2.00000         -88.141177        -2398.44346
     14       2.00000         -88.140121        -2398.41473
     15       2.00000         -88.137319        -2398.33849
     16       2.00000         -88.132940        -2398.21932
     17       2.00000         -88.129775        -2398.13320
     18       2.00000         -88.129167        -2398.11664
     19       2.00000         -88.125907        -2398.02795
     20       2.00000         -88.125690        -2398.02203
     21       2.00000         -88.123354        -2397.95846
     22       2.00000         -88.119820        -2397.86230
     23       2.00000         -88.119570        -2397.85549
     24       2.00000         -88.117584        -2397.80146
     25       2.00000         -76.384373        -2078.52455
     26       2.00000         -76.380442        -2078.41757
     27       2.00000         -76.379172        -2078.38301
     28       2.00000         -76.378620        -2078.36800
     29       2.00000          -9.282530         -252.59049
     30       2.00000          -9.269906         -252.24699
     31       2.00000          -9.253445         -251.79906
     32       2.00000          -9.252949         -251.78555
     33       2.00000          -9.252849         -251.78284
     34       2.00000          -9.250822         -251.72767
     35       2.00000          -9.247396         -251.63446
     36       2.00000          -9.243463         -251.52742
     37       2.00000          -7.780452         -211.71688
     38       2.00000          -7.773101         -211.51683
     39       2.00000          -7.771292         -211.46763
     40       2.00000          -7.770992         -211.45944
     41       2.00000          -7.768731         -211.39794
     42       2.00000          -7.767843         -211.37377
     43       2.00000          -7.764812         -211.29129
     44       2.00000          -7.760238         -211.16683
     45       2.00000          -7.757137         -211.08244
     46       2.00000          -7.755998         -211.05144
     47       2.00000          -7.752687         -210.96135
     48       2.00000          -7.752481         -210.95575
     49       2.00000          -7.750012         -210.88855
     50       2.00000          -7.746056         -210.78092
     51       2.00000          -7.745928         -210.77742
     52       2.00000          -7.743729         -210.71758
     53       2.00000          -7.100173         -193.20553
     54       2.00000          -7.098701         -193.16549
     55       2.00000          -7.097914         -193.14407
     56       2.00000          -7.088094         -192.87685
     57       2.00000          -7.085742         -192.81284
     58       2.00000          -7.085352         -192.80223
     59       2.00000          -7.071085         -192.41403
     60       2.00000          -7.070769         -192.40541
     61       2.00000          -7.070245         -192.39115
     62       2.00000          -7.069709         -192.37657
     63       2.00000          -7.069317         -192.36591
     64       2.00000          -7.069274         -192.36473
     65       2.00000          -7.069169         -192.36187
     66       2.00000          -7.068934         -192.35548
     67       2.00000          -7.068653         -192.34782
     68       2.00000          -7.068398         -192.34089
     69       2.00000          -7.067125         -192.30625
     70       2.00000          -7.066790         -192.29714
     71       2.00000          -7.064667         -192.23936
     72       2.00000          -7.063811         -192.21609
     73       2.00000          -7.063588         -192.21001
     74       2.00000          -7.060932         -192.13774
     75       2.00000          -7.059774         -192.10622
     76       2.00000          -7.059675         -192.10354
     77       2.00000          -6.392943         -173.96082
     78       2.00000          -6.388733         -173.84626
     79       2.00000          -6.387150         -173.80318
     80       2.00000          -6.386640         -173.78930
     81       2.00000          -5.799605         -157.81529
     82       2.00000          -5.797270         -157.75173
     83       2.00000          -5.796593         -157.73333
     84       2.00000          -5.791496         -157.59462
     85       2.00000          -5.790571         -157.56945
     86       2.00000          -5.790311         -157.56237
     87       2.00000          -5.789771         -157.54769
     88       2.00000          -5.789559         -157.54191
     89       2.00000          -5.789084         -157.52899
     90       2.00000          -5.787828         -157.49481
     91       2.00000          -5.787438         -157.48419
     92       2.00000          -5.787390         -157.48290
     93       2.00000          -5.786915         -157.46998
     94       2.00000          -5.786139         -157.44885
     95       2.00000          -5.785597         -157.43411
     96       2.00000          -5.785497         -157.43139
     97       2.00000          -5.785339         -157.42708
     98       2.00000          -5.784392         -157.40131
     99       2.00000          -5.783317         -157.37207
    100       2.00000          -5.782493         -157.34964
    101       2.00000          -5.780994         -157.30885
    102       2.00000          -5.778682         -157.24593
    103       2.00000          -5.777842         -157.22309
    104       2.00000          -5.776610         -157.18955
    105       2.00000          -5.775588         -157.16175
    106       2.00000          -5.774784         -157.13987
    107       2.00000          -5.774658         -157.13645
    108       2.00000          -5.773637         -157.10867
    109       2.00000          -5.773460         -157.10383
    110       2.00000          -5.772353         -157.07373
    111       2.00000          -5.771636         -157.05421
    112       2.00000          -5.771163         -157.04133
    113       2.00000          -5.769930         -157.00779
    114       2.00000          -5.769928         -157.00773
    115       2.00000          -5.769134         -156.98613
    116       2.00000          -5.768981         -156.98195
    117       2.00000          -5.768540         -156.96995
    118       2.00000          -5.767333         -156.93711
    119       2.00000          -5.766820         -156.92316
    120       2.00000          -5.765133         -156.87724
    121       2.00000          -5.764738         -156.86650
    122       2.00000          -5.763113         -156.82229
    123       2.00000          -5.762976         -156.81857
    124       2.00000          -5.762866         -156.81557
    125       2.00000          -5.762768         -156.81290
    126       2.00000          -5.762705         -156.81118
    127       2.00000          -5.760730         -156.75745
    128       2.00000          -5.760598         -156.75385
    129       2.00000          -4.608798         -125.41177
    130       2.00000          -4.607976         -125.38941
    131       2.00000          -4.607619         -125.37970
    132       2.00000          -4.604352         -125.29078
    133       2.00000          -4.603829         -125.27657
    134       2.00000          -4.603668         -125.27218
    135       2.00000          -4.602561         -125.24205
    136       2.00000          -4.602483         -125.23995
    137       2.00000          -4.602129         -125.23030
    138       2.00000          -4.602051         -125.22818
    139       2.00000          -4.601976         -125.22613
    140       2.00000          -4.601613         -125.21625
    141       2.00000          -1.961430          -53.37323
    142       2.00000          -1.941311          -52.82575
    143       2.00000          -1.914550          -52.09756
    144       2.00000          -1.912841          -52.05104
    145       2.00000          -1.904423          -51.82199
    146       2.00000          -1.903719          -51.80282
    147       2.00000          -1.903296          -51.79132
    148       2.00000          -1.900699          -51.72064
    149       2.00000          -1.900199          -51.70704
    150       2.00000          -1.899849          -51.69754
    151       2.00000          -1.897633          -51.63721
    152       2.00000          -1.897277          -51.62754
    153       2.00000          -1.894826          -51.56085
    154       2.00000          -1.893315          -51.51972
    155       2.00000          -1.892145          -51.48788
    156       2.00000          -1.888307          -51.38344
    157       2.00000          -1.887373          -51.35804
    158       2.00000          -1.886499          -51.33425
    159       2.00000          -1.885942          -51.31908
    160       2.00000          -1.884871          -51.28995
    161       2.00000          -0.846757          -23.04144
    162       2.00000          -0.830085          -22.58777
    163       2.00000          -0.819016          -22.28656
    164       2.00000          -0.812433          -22.10742
    165       2.00000          -0.809736          -22.03405
    166       2.00000          -0.808121          -21.99009
    167       2.00000          -0.805931          -21.93050
    168       2.00000          -0.805099          -21.90785
    169       2.00000          -0.804048          -21.87926
    170       2.00000          -0.803621          -21.86763
    171       2.00000          -0.801885          -21.82039
    172       2.00000          -0.795048          -21.63436
    173       2.00000          -0.738051          -20.08339
    174       2.00000          -0.728238          -19.81637
    175       2.00000          -0.726066          -19.75727
    176       2.00000          -0.721836          -19.64217
    177       2.00000          -0.718929          -19.56304
    178       2.00000          -0.717948          -19.53635
    179       2.00000          -0.713119          -19.40496
    180       2.00000          -0.705347          -19.19347
    181       2.00000          -0.704653          -19.17457
    182       2.00000          -0.702140          -19.10620
    183       2.00000          -0.694503          -18.89838
    184       2.00000          -0.690920          -18.80088
    185       2.00000          -0.563335          -15.32912
    186       2.00000          -0.543717          -14.79530
    187       2.00000          -0.533184          -14.50867
    188       2.00000          -0.528709          -14.38690
    189       2.00000          -0.456819          -12.43067
    190       2.00000          -0.454614          -12.37068
    191       2.00000          -0.449147          -12.22192
    192       2.00000          -0.438673          -11.93689
    193       2.00000          -0.435131          -11.84051
    194       2.00000          -0.434737          -11.82980
    195       2.00000          -0.429308          -11.68207
    196       2.00000          -0.427567          -11.63468
    197       2.00000          -0.425069          -11.56673
    198       2.00000          -0.422389          -11.49379
    199       2.00000          -0.419752          -11.42203
    200       2.00000          -0.418552          -11.38939
    201       2.00000          -0.417433          -11.35893
    202       2.00000          -0.415374          -11.30291
    203       2.00000          -0.411242          -11.19045
    204       2.00000          -0.406641          -11.06526
    205       2.00000          -0.404440          -11.00538
    206       2.00000          -0.402379          -10.94929
    207       2.00000          -0.400658          -10.90245
    208       2.00000          -0.397710          -10.82224
    209       2.00000          -0.395667          -10.76665
    210       2.00000          -0.390025          -10.61312
    211       2.00000          -0.388277          -10.56555
    212       2.00000          -0.387089          -10.53322
    213       2.00000          -0.386306          -10.51192
    214       2.00000          -0.383912          -10.44679
    215       2.00000          -0.379705          -10.33230
    216       2.00000          -0.378059          -10.28751
    217       2.00000          -0.376347          -10.24092
    218       2.00000          -0.375217          -10.21017
    219       2.00000          -0.373093          -10.15237
    220       2.00000          -0.372204          -10.12819
    221       2.00000          -0.368788          -10.03522
    222       2.00000          -0.366826           -9.98185
    223       2.00000          -0.365500           -9.94577
    224       2.00000          -0.364347           -9.91438
    225       2.00000          -0.362481           -9.86360
    226       2.00000          -0.362130           -9.85406
    227       2.00000          -0.358959           -9.76778
    228       2.00000          -0.355979           -9.68667
    229       2.00000          -0.352383           -9.58882
    230       2.00000          -0.350150           -9.52807
    231       2.00000          -0.346834           -9.43784
    232       2.00000          -0.343760           -9.35418
    233       2.00000          -0.341091           -9.28156
    234       2.00000          -0.338487           -9.21069
    235       2.00000          -0.336151           -9.14712
    236       2.00000          -0.333988           -9.08829
    237       2.00000          -0.331098           -9.00965
    238       2.00000          -0.327758           -8.91875
    239       2.00000          -0.325719           -8.86326
    240       2.00000          -0.322366           -8.77203
    241       2.00000          -0.321551           -8.74985
    242       2.00000          -0.319808           -8.70243
    243       2.00000          -0.313909           -8.54190
    244       2.00000          -0.311759           -8.48338
    245       2.00000          -0.309373           -8.41846
    246       2.00000          -0.307459           -8.36638
    247       2.00000          -0.303362           -8.25490
    248       2.00000          -0.300813           -8.18553
    249       2.00000          -0.295191           -8.03255
    250       2.00000          -0.292556           -7.96084
    251       2.00000          -0.291521           -7.93268
    252       2.00000          -0.287882           -7.83368
    253       2.00000          -0.281829           -7.66896
    254       2.00000          -0.277475           -7.55048
    255       2.00000          -0.271961           -7.40042
    256       2.00000          -0.268673           -7.31097
    257       0.00000          -0.185897           -5.05850
    258       0.00000          -0.137186           -3.73302
    259       0.00000          -0.131177           -3.56951
    260       0.00000          -0.127308           -3.46424
    261       0.00000          -0.126440           -3.44060
    262       0.00000          -0.123202           -3.35250
    263       0.00000          -0.117141           -3.18757
    264       0.00000          -0.115920           -3.15433
    265       0.00000          -0.112917           -3.07262
    266       0.00000          -0.109599           -2.98233
    267       0.00000          -0.105281           -2.86485
    268       0.00000          -0.100789           -2.74261
    269       0.00000          -0.094948           -2.58367
    270       0.00000          -0.084605           -2.30222
    271       0.00000          -0.081528           -2.21850
    272       0.00000          -0.079976           -2.17627
    273       0.00000          -0.076522           -2.08227
    274       0.00000          -0.072536           -1.97381
    275       0.00000          -0.071247           -1.93873
    276       0.00000          -0.070020           -1.90535
    277       0.00000          -0.066408           -1.80705
    278       0.00000          -0.061708           -1.67915
    279       0.00000          -0.056752           -1.54431
    280       0.00000          -0.052597           -1.43123
    281       0.00000          -0.051567           -1.40321
    282       0.00000          -0.049843           -1.35630
    283       0.00000          -0.048686           -1.32480
    284       0.00000          -0.046483           -1.26488
    285       0.00000          -0.044256           -1.20425
    286       0.00000          -0.039490           -1.07457
    287       0.00000          -0.036855           -1.00287
    288       0.00000          -0.031244           -0.85019
[...]
    306       0.00000           0.033095            0.90056
    307       0.00000           0.036119            0.98285
    308       0.00000           0.037335            1.01592
    309       0.00000           0.039672            1.07952
    310       0.00000           0.041467            1.12838
    311       0.00000           0.044551            1.21230
    312       0.00000           0.046554            1.26679
    313       0.00000           0.049654            1.35115
    314       0.00000           0.049960            1.35948
    315       0.00000           0.051574            1.40340
    316       0.00000           0.052545            1.42983
    317       0.00000           0.055621            1.51353
    318       0.00000           0.056423            1.53534
    319       0.00000           0.059210            1.61118
    320       0.00000           0.060798            1.65439
    321       0.00000           0.067116            1.82633
    322       0.00000           0.069017            1.87804
    323       0.00000           0.072298            1.96733
    324       0.00000           0.074853            2.03685
    325       0.00000           0.075918            2.06585
    326       0.00000           0.077873            2.11903
    327       0.00000           0.082184            2.23635
    328       0.00000           0.082719            2.25091
    329       0.00000           0.086070            2.34209
    330       0.00000           0.089449            2.43404
    331       0.00000           0.092315            2.51202
    332       0.00000           0.095633            2.60231
    333       0.00000           0.098525            2.68100
    334       0.00000           0.099406            2.70498
    335       0.00000           0.100500            2.73474
    336       0.00000           0.105377            2.86745
    337       0.00000           0.107307            2.91997
    338       0.00000           0.110338            3.00246
    339       0.00000           0.112622            3.06459
    340       0.00000           0.113196            3.08023
    341       0.00000           0.115194            3.13458
    342       0.00000           0.117803            3.20558
    343       0.00000           0.122616            3.33656
    344       0.00000           0.124062            3.37590
    345       0.00000           0.130494            3.55093
    346       0.00000           0.131538            3.57932
    347       0.00000           0.135531            3.68798
    348       0.00000           0.137463            3.74055
    349       0.00000           0.142163            3.86846
    350       0.00000           0.143612            3.90789
    351       0.00000           0.147176            4.00485
    352       0.00000           0.150734            4.10168
    353       0.00000           0.151447            4.12109
    354       0.00000           0.157375            4.28239
    355       0.00000           0.160056            4.35533
    356       0.00000           0.164322            4.47142
    357       0.00000           0.168497            4.58504
    358       0.00000           0.171077            4.65525
    359       0.00000           0.172706            4.69956
    360       0.00000           0.175180            4.76690
    361       0.00000           0.178943            4.86928
    362       0.00000           0.179639            4.88823
    363       0.00000           0.180296            4.90611
    364       0.00000           0.184212            5.01268
    365       0.00000           0.189710            5.16227
    366       0.00000           0.191772            5.21839
    367       0.00000           0.194853            5.30222
    368       0.00000           0.197098            5.36330
    369       0.00000           0.201259            5.47652
    370       0.00000           0.202934            5.52213

  What follows are estimated values for band gap, HOMO, LUMO, etc.
  | They are estimated on a discrete k-point grid and not necessarily exact.
  | For converged numbers, create a DOS and/or band structure plot on a denser k-grid.

  Highest occupied state (VBM) at     -5.99976433 eV (relative to internal zero)
  | Occupation number:      2.00000000
  | K-point:       1 at    0.000000    0.000000    0.000000 (in units of recip. lattice)

  Lowest unoccupied state (CBM) at    -5.07513172 eV (relative to internal zero)
  | Occupation number:      0.00000000
  | K-point:       1 at    0.000000    0.000000    0.000000 (in units of recip. lattice)

  ESTIMATED overall HOMO-LUMO gap:      0.92463261 eV between HOMO at k-point 1 and LUMO at k-point 1
  | This appears to be a direct band gap.
  The gap value is above 0.2 eV. Unless you are using a very sparse k-point grid,
  this system is most likely an insulator or a semiconductor.

  Self-consistency cycle converged.

  End self-consistency iteration #    21       :  max(cpu_time)    wall_clock(cpu1)
  | Time for this iteration                    :       14.419 s          14.421 s
  | Charge density & force component update    :        9.491 s           9.491 s
  | Density mixing                             :        0.007 s           0.007 s
  | Hartree multipole update                   :        0.005 s           0.004 s
  | Hartree multipole summation                :        3.862 s           3.863 s
  | Integration                                :        0.684 s           0.683 s
  | Solution of K.-S. eqns.                    :        0.366 s           0.367 s
  | Total energy evaluation                    :        0.002 s           0.003 s

  Partial memory accounting:
  | Current value for overall tracked memory usage on task 0  :          13.167 MB
  | Peak value for overall tracked memory usage on task 0     :          25.863 MB after allocating wave_pulay
  | Largest tracked array allocation on task 0 so far         :           8.387 MB  when allocating kdm_complex
  Note:  These values currently only include a subset of arrays which are explicitly tracked.
  The "true" memory usage will be greater.
------------------------------------------------------------
  |------------------------------------------
  | Final ELSI Output
  |------------------------------------------
  | Number of basis functions :          724
  | Number of electrons       :        512.0
  | Number of states          :          370
  | Solver                    :         ELPA
  | Parallel mode             :  SINGLE_PROC
  | Matrix format             :  BLACS_DENSE
  |------------------------------------------
  | ELSI Project (c)  elsi-interchange.org
  |------------------------------------------
  Removing unitary transformations (pure translations, rotations) from forces on atoms.
  Atomic forces before filtering:
  | Net force on center of mass :   0.109839E-01  0.873325E-02 -0.445555E-03 eV/A
  Atomic forces after filtering:
  | Net force on center of mass :  -0.142725E-14  0.178406E-15  0.713624E-15 eV/A

  Energy and forces in a compact form:
  | Total energy uncorrected      :         -0.314731267213481E+06 eV
  | Total energy corrected        :         -0.314731267213481E+06 eV  <-- do not rely on this value for anything but (periodic) metals
  | Electronic free energy        :         -0.314731267213481E+06 eV
  Total atomic forces (unitary forces cleaned) [eV/Ang]:
  |   1          0.165559063769260E+01         -0.104348513471693E+00         -0.531773824208874E+00
  |   2          0.593238982223718E+00         -0.770321897953770E+00          0.666734398257736E+00
  |   3         -0.514422174328753E+00          0.123409065328412E+00         -0.350400553241069E+00
  |   4          0.635478393476536E+00         -0.145817070831892E+00          0.785004131160147E+00
  |   5          0.154758434013614E+01         -0.177259990549732E+00          0.916453678315900E+00
  |   6          0.611610729950754E-01         -0.527008216026342E+00         -0.349456467415336E+00
  |   7          0.853032441100300E+00          0.143846064051983E+01          0.174052663967041E+00
  |   8          0.836087689723919E+00         -0.310410979784350E+01          0.332609931497169E+01
  |   9          0.105889089778548E+01          0.483237546695496E+00          0.722042850042346E+00
  |  10         -0.986964729320338E+00         -0.272481939747409E+00         -0.235687174701352E+00
  |  11          0.848918968222219E+00         -0.990191971553582E+00          0.812151905949068E+00
  |  12         -0.186111986099359E+01          0.425860266453112E+00         -0.419877472988352E+00
  |  13          0.135716831119276E+00          0.105778409029346E+01          0.284101065093222E+00
  |  14         -0.977820338834484E+00         -0.898505484897175E+00          0.216712967729958E+01
  |  15          0.825127294693594E+00          0.373118826965694E+00          0.421184152799329E+01
  |  16         -0.992739579837691E+00         -0.514529480827116E+00         -0.204985824507499E+01
  |  17         -0.103065263662101E+01         -0.593595898939598E+00          0.221590147639026E+00
  |  18          0.882156657257822E+00         -0.274675010704426E+01          0.339742132082730E+01
  |  19          0.444166017833564E+00          0.100817009817132E+00         -0.657218967782172E+00
  |  20          0.736655313269064E-01         -0.315665158045479E+00          0.206510257977171E+01
  |  21         -0.133541650298610E+01          0.306780009668600E+00          0.228633958650132E+01
  |  22         -0.747026201424248E+00          0.208408760636329E-01         -0.272449179690549E+01
  |  23          0.759487897467481E-01         -0.402297544214867E+00         -0.698708014814273E+00
  |  24         -0.343368802744631E+00         -0.258672623606094E+01          0.215941643346654E+01
  |  25         -0.239013366272372E+00         -0.533655845220061E+00         -0.448695264935438E+01
  |  26         -0.424570132386565E+00          0.209021827769498E+00         -0.230590790954155E+01
  |  27          0.542429232721390E+00         -0.305198864703917E+00         -0.138435630317566E+01
  |  28          0.680338984918596E+00         -0.146725678256355E+00          0.147793090399533E+01
  |  29          0.361628280217982E+00         -0.651966487751137E-01          0.330384776235357E+00
  |  30         -0.406086357074588E+00         -0.446277446699996E+00          0.121799660607824E+01
  |  31          0.645049940231206E+00          0.302080689626136E-02          0.363519871732400E+00
  |  32         -0.445752330382883E+00          0.104897567451932E+01          0.412869057330151E+00
  |  33         -0.145401824237156E+01          0.622201421343829E+00         -0.731709336234886E+00
  |  34          0.235977971815212E+00          0.209179804424169E+00          0.225973095462817E+00
  |  35          0.418456623594905E+00         -0.669852704897833E-01         -0.541258978832151E+00
  |  36          0.984970328425341E+00          0.183362047689421E+01         -0.736239056996238E+00
  |  37          0.609243675361042E+00          0.108361716586395E+01         -0.134337735496013E+01
  |  38         -0.316559564247585E+00          0.453974653382607E+00         -0.295693977733531E+00
  |  39         -0.921740267674386E+00          0.617659110508220E+00          0.232607931323375E+00
  |  40          0.561143937967369E+00          0.126006804859996E+01         -0.101795376815362E+01
  |  41         -0.167384328096105E+01          0.127944793716296E+00          0.924822098919540E+00
  |  42          0.273388939983414E+00          0.481898257773804E+00         -0.174404177234076E+00
  |  43          0.509738301918448E-02          0.759698675933843E+00         -0.423212351192532E+00
  |  44          0.205643632222178E+00         -0.445127327182150E+00          0.926946715377446E+00
  |  45         -0.861455199228259E+00          0.215508558884335E+01         -0.394944167291738E+01
  |  46          0.410108840778731E+00          0.190016494686596E+00          0.971661155555168E-01
  |  47          0.153602537890267E+01         -0.419319369315555E+00         -0.289803696067446E+00
  |  48         -0.246369812780302E+01          0.119180462568899E+01         -0.470791470374060E+01

  ------------------------------------ 
  Start decomposition of the XC Energy 
  ------------------------------------ 
  X and C from original XC functional choice 
  Hartree-Fock Energy :          0.000000000 Ha              0.000000000 eV
  X Energy            :       -745.464618004 Ha         -20285.124351643 eV
  C Energy            :        -19.338783889 Ha           -526.235084175 eV
  Total XC Energy     :       -764.803401893 Ha         -20811.359435819 eV
  ------------------------------------ 
  LDA X and C from self-consistent density 
  X Energy LDA        :       -690.100066805 Ha         -18778.578261304 eV
  C Energy LDA        :        -38.824439343 Ha          -1056.466746964 eV
  ------------------------------------ 
  End decomposition of the XC Energy 
  ------------------------------------ 

------------------------------------------------------------

------------------------------------------------------------------------------
  Final output of selected total energy values:

  The following output summarizes some interesting total energy values
  at the end of a run (AFTER all relaxation, molecular dynamics, etc.).

  | Total energy of the DFT / Hartree-Fock s.c.f. calculation      :        -314731.267213481 eV
  | Final zero-broadening corrected energy (caution - metals only) :        -314731.267213481 eV
  | For reference only, the value of 1 Hartree used in FHI-aims is :             27.211384500 eV

  Before relying on these values, please be sure to understand exactly which
  total energy value is referred to by a given number. Different objects may
  all carry the same name 'total energy'. Definitions:

  Total energy of the DFT / Hartree-Fock s.c.f. calculation:
  | Note that this energy does not include ANY quantities calculated after the
  | s.c.f. cycle, in particular not ANY RPA, MP2, etc. many-body perturbation terms.

  Final zero-broadening corrected energy:
  | For metallic systems only, a broadening of the occupation numbers at the Fermi
  | level can be extrapolated back to zero broadening by an electron-gas inspired
  | formula. For all systems that are not real metals, this value can be
  | meaningless and should be avoided.

------------------------------------------------------------------------------
  Methods described in the following list of references were used in this FHI-aims run.
  If you publish the results, please make sure to cite these reference if they apply.
  FHI-aims is an academic code, and for our developers (often, Ph.D. students
  and postdocs), scientific credit in the community is essential.
  Thank you for helping us!

  For any use of FHI-aims, please cite:

    Volker Blum, Ralf Gehrke, Felix Hanke, Paula Havu, Ville Havu,
    Xinguo Ren, Karsten Reuter, and Matthias Scheffler
    'Ab initio molecular simulations with numeric atom-centered orbitals'
    Computer Physics Communications 180, 2175-2196 (2009)
    http://dx.doi.org/10.1016/j.cpc.2009.06.022


  The provided symmetry information was generated with SPGlib:

    Atsushi Togo, Yusuke Seto, Dimitar Pashov
    SPGlib 1.7.3 obtained from http://spglib.sourceforge.net
    Copyright (C) 2008 Atsushi Togo


  The scalable eigensolver library ELPA was used in your run.
  ELPA is essential especially for large systems on hundreds or thousands of CPUs.
  For ELPA, please cite:

    Andreas Marek, Volker Blum, Rainer Johanni, Ville Havu, Bruno Lang,
    Thomas Auckenthaler, Alexander Heinecke, Hans-Joachim Bungartz, and Hermann Lederer,
    'The ELPA Library - Scalable Parallel Eigenvalue Solutions
    for Electronic Structure Theory and Computational Science'
    The Journal of Physics: Condensed Matter 26, 213201 (2014).
    http://dx.doi.org/10.1088/0953-8984/26/21/213201


  The ELSI infrastructure was used in your run to solve the Kohn-Sham electronic structure.
  Please check out http://elsi-interchange.org to learn more.
  If scalability is important for your project, please acknowledge ELSI by citing:

    V. W-z. Yu, F. Corsetti, A. Garcia, W. P. Huhn, M. Jacquelin, W. Jia,
    B. Lange, L. Lin, J. Lu, W. Mi, A. Seifitokaldani, A. Vazquez-Mayagoitia,
    C. Yang, H. Yang, and V. Blum
    'ELSI: A unified software interface for Kohn-Sham electronic structure solvers'
    Computer Physics Communications 222, 267-285 (2018).
    http://dx.doi.org/10.1016/j.cpc.2017.09.007


  For the real-space grid partitioning and parallelization used in this calculation, please cite:

    Ville Havu, Volker Blum, Paula Havu, and Matthias Scheffler,
    'Efficient O(N) integration for all-electron electronic structure calculation'
    'using numerically tabulated basis functions'
    Journal of Computational Physics 228, 8367-8379 (2009).
    http://dx.doi.org/10.1016/j.jcp.2009.08.008

  Of course, there are many other important community references, e.g., those cited in the
  above references. Our list is limited to references that describe implementations in the
  FHI-aims code. The reason is purely practical (length of this list) - please credit others as well.

 * A warning was issued further up regarding the CPU load.
   Some CPUs do not participate in the eigenvalue solution.
   In corner cases, this may be the correct behavior. Otherwise,
   consider using a scalapack/elpa version of the code for a parallel treatment.

------------------------------------------------------------
          Leaving FHI-aims.
          Date     :  20220723, Time     :  171738.908

          Computational steps:
          | Number of self-consistency cycles          :           21
          | Number of SCF (re)initializations          :            1

          Detailed time accounting                     :  max(cpu_time)    wall_clock(cpu1)
          | Total time                                 :      110.079 s         110.099 s
          | Preparation time                           :        0.412 s           0.421 s
          | Boundary condition initalization           :        0.248 s           0.248 s
          | Grid partitioning                          :        0.260 s           0.260 s
          | Preloading free-atom quantities on grid    :        0.009 s           0.008 s
          | Free-atom superposition energy             :        0.130 s           0.130 s
          | Total time for integrations                :       15.190 s          15.193 s
          | Total time for solution of K.-S. equations :        8.309 s           8.310 s
          | Total time for density & force components  :       31.268 s          31.247 s
          | Total time for mixing & preconditioning    :       19.952 s          19.950 s
          | Total time for Hartree multipole update    :        0.098 s           0.098 s
          | Total time for Hartree multipole sum       :       33.430 s          33.433 s
          | Total time for total energy evaluation     :        0.008 s           0.013 s

          Partial memory accounting:
          | Residual value for overall tracked memory usage across tasks :           0.000 MB (should be 0.000 MB)
          | Peak values for overall tracked memory usage (after allocating wave_pulay):
          |   Minimum:       25.566 MB (on task 18)
          |   Maximum:       51.018 MB (on task  2)
          |   Average:       43.468 MB
          | Largest tracked array allocation (kdm_complex):
          |   Minimum:        8.387 MB (on task  1)
          |   Maximum:        8.387 MB (on task  1)
          |   Average:        8.387 MB
          Note:  These values currently only include a subset of arrays which are explicitly tracked.
          The "true" memory usage will be greater.

          Have a nice day.
------------------------------------------------------------
