  MPI-parallelism will be employed.
------------------------------------------------------------
          Invoking FHI-aims ...
          Version 171221_1
          Compiled on 2020/09/23 at 19:46:43 on host login.service.

          When using FHI-aims, please cite the following reference:

          Volker Blum, Ralf Gehrke, Felix Hanke, Paula Havu,
          Ville Havu, Xinguo Ren, Karsten Reuter, and Matthias Scheffler,
          'Ab Initio Molecular Simulations with Numeric Atom-Centered Orbitals',
          Computer Physics Communications 180, 2175-2196 (2009)

          For any questions about FHI-aims, please visit the aimsclub website
          with its forums and wiki. Contributions to both the forums and the
          wiki are warmly encouraged - they are for you, and everyone is welcome there.

------------------------------------------------------------



  Date     :  20220704, Time     :  090024.047
  Time zero on CPU 1             :   0.834910000000000E-01  s.
  Internal wall clock time zero  :           426157224.047  s.

  FHI-aims created a unique identifier for this run for later identification
  aims_uuid : A30E64CC-2F47-4648-A9DF-F6A618E5D722

  Using       20 parallel tasks.
  Task        0 on host node108 reporting.
  Task        1 on host node108 reporting.
  Task        2 on host node108 reporting.
  Task        3 on host node108 reporting.
  Task        4 on host node108 reporting.
  Task        5 on host node108 reporting.
  Task        6 on host node108 reporting.
  Task        7 on host node108 reporting.
  Task        8 on host node108 reporting.
  Task        9 on host node108 reporting.
  Task       10 on host node108 reporting.
  Task       11 on host node108 reporting.
  Task       12 on host node108 reporting.
  Task       13 on host node108 reporting.
  Task       14 on host node108 reporting.
  Task       15 on host node108 reporting.
  Task       16 on host node108 reporting.
  Task       17 on host node108 reporting.
  Task       18 on host node108 reporting.
  Task       19 on host node108 reporting.

  Performing system and environment tests:
  *** Environment variable OMP_NUM_THREADS is not set
  *** For performance reasons you might want to set it to 1
  | Maximum stacksize for task 0: unlimited
  | Maximum stacksize for task 1: unlimited
  | Maximum stacksize for task 2: unlimited
  | Maximum stacksize for task 3: unlimited
  | Maximum stacksize for task 4: unlimited
  | Maximum stacksize for task 5: unlimited
  | Maximum stacksize for task 6: unlimited
  | Maximum stacksize for task 7: unlimited
  | Maximum stacksize for task 8: unlimited
  | Maximum stacksize for task 9: unlimited
  | Maximum stacksize for task 10: unlimited
  | Maximum stacksize for task 11: unlimited
  | Maximum stacksize for task 12: unlimited
  | Maximum stacksize for task 13: unlimited
  | Maximum stacksize for task 14: unlimited
  | Maximum stacksize for task 15: unlimited
  | Maximum stacksize for task 16: unlimited
  | Maximum stacksize for task 17: unlimited
  | Maximum stacksize for task 18: unlimited
  | Maximum stacksize for task 19: unlimited
  | Current stacksize for task 0: unlimited
  | Current stacksize for task 1: unlimited
  | Current stacksize for task 2: unlimited
  | Current stacksize for task 3: unlimited
  | Current stacksize for task 4: unlimited
  | Current stacksize for task 5: unlimited
  | Current stacksize for task 6: unlimited
  | Current stacksize for task 7: unlimited
  | Current stacksize for task 8: unlimited
  | Current stacksize for task 9: unlimited
  | Current stacksize for task 10: unlimited
  | Current stacksize for task 11: unlimited
  | Current stacksize for task 12: unlimited
  | Current stacksize for task 13: unlimited
  | Current stacksize for task 14: unlimited
  | Current stacksize for task 15: unlimited
  | Current stacksize for task 16: unlimited
  | Current stacksize for task 17: unlimited
  | Current stacksize for task 18: unlimited
  | Current stacksize for task 19: unlimited
  | Checking for scalapack...
  | Testing pdtran()...
  | All pdtran() tests passed.

  Obtaining array dimensions for all initial allocations:
  
  -----------------------------------------------------------------------
  Parsing control.in (first pass over file, find array dimensions only).
  The contents of control.in will be repeated verbatim below
  unless switched off by setting 'verbatim_writeout .false.' .
  in the first line of control.in .
  -----------------------------------------------------------------------
  
  #===============================================================================
  # FHI-aims file: ./control.in
  # Created using the Atomic Simulation Environment (ASE)
  # Wed Mar 24 12:41:28 2021
  #===============================================================================
  xc                                 pbe
  sc_accuracy_etot                   1e-06
  sc_accuracy_eev                    0.001
  sc_accuracy_rho                    1e-06
  sc_accuracy_forces                 0.0001
  friction_temperature               300  # default 300
  
    k_grid                           1  1  2
  
  
  
  ################################################################################
  #
  #  FHI-aims code project
  # Volker Blum, Fritz Haber Institute Berlin, 2009
  #
  #  Suggested "tight" defaults for Li atom (to be pasted into control.in file)
  #
  #  2016/03/22: Increased cutoff radius to 5.0 AA (Xinguo Ren, Aug 15, 2015)
  #
  ################################################################################
    species        Li
  #     global species definitions
      nucleus             3
      mass                6.941
  #
      l_hartree           6
  #
      cut_pot             5.0  2.0  1.0
      basis_dep_cutoff    1e-4
  #
      radial_base         29 7.0
      radial_multiplier   2
      angular_grids       specified
        division   0.4484  110
        division   0.5659  194
        division   0.6315  302
        division   0.6662  434
  #      division   0.8186  590
  #      division   0.9037  770
  #      division   6.2760  974
  #      outer_grid   974
        outer_grid  434
  ################################################################################
  #
  #  Definition of "minimal" basis
  #
  ################################################################################
  #     valence basis states
      valence      2  s   1.
  #     ion occupancy
      ion_occ      1  s   2.
  ################################################################################
  #
  #  Suggested additional basis functions. For production calculations,
  #  uncomment them one after another (the most important basis functions are
  #  listed first).
  #
  #  Constructed for dimers: 1.80 A, 2.25 A, 2.75 A, 3.50 A, 4.50 A
  #
  ################################################################################
  #  "First tier" - improvements: -189.23 meV to -6.35 meV
       hydro 2 p 1.6
       hydro 2 s 2
       hydro 3 d 2.6
  #  "Second tier" - improvements: -4.69 meV to -0.41 meV
       hydro 3 p 4.6
       hydro 2 p 1.8
       hydro 3 s 6.2
       hydro 4 d 4.7
       hydro 4 f 4.1
  #  "Third tier" - improvements: -0.20 meV to -0.15 meV
  #     hydro 4 d 0.95
  #     hydro 3 p 6.2
  #     hydro 3 s 1.7
  #  Further functions, listed for completeness
  #     VB: The following functions are only listed for completeness; test very
  #         carefully before any kind of production use. From the point of view
  #         of the basis construction, their main role is to fill up space,
  #         and they are solely determined by the location of the cutoff potential.
  #     hydro 3 p 0.1  # -0.15 meV
  #     hydro 4 d 5    # -0.12 meV
  #     hydro 4 f 0.1  # -0.14 meV
  #     hydro 5 g 0.1  # -0.06 meV
  
  
  ################################################################################
  #
  # For methods that use the localized form of the "resolution of identity" for
  # the two-electron Coulomb operator (RI_method LVL), particularly Hartree-Fock and
  # hybrid density functional calculations, the highest accuracy can be obtained by
  # uncommenting the line beginning with "for_aux"  below, thus adding an extra g radial
  # function to the construction of the product basis set for the expansion.
  # See Ref. New J. Phys. 17, 093020 (2015) for more information, particularly Figs. 1 and 6.
  #
  ################################################################################
  #
  # for_aux hydro 5 g 6.0
  ################################################################################
  #
  #  FHI-aims code project
  # Volker Blum, Fritz Haber Institute Berlin, 2010
  #
  #  Suggested "tight" defaults for P atom (to be pasted into control.in file)
  #
  #  Revised Jan 04, 2011, following tests (SiC) done by Lydia Nemec:
  #     d function of tier 2 now enabled by default.
  #
  ################################################################################
    species        P
  #     global species definitions
      nucleus             15
      mass                30.973762
  #
      l_hartree           6
  #
      cut_pot             4.0          2.0  1.0
      basis_dep_cutoff    1e-4
  #
      radial_base         43 7.0
      radial_multiplier   2
      angular_grids       specified
        division   0.2995   50
        division   0.5998  110
        division   0.9240  194
        division   1.0921  302
        division   1.2863  434
  #      division   1.3165  590
  #      division   1.4113  770
  #      division   1.5128  974
  #      division   2.4980 1202
        outer_grid  434
  ################################################################################
  #
  #  Definition of "minimal" basis
  #
  ################################################################################
  #     valence basis states
      valence      3  s   2.
      valence      3  p   3.
  #     ion occupancy
      ion_occ      3  s   1.
      ion_occ      3  p   2.
  ################################################################################
  #
  #  Suggested additional basis functions. For production calculations,
  #  uncomment them one after another (the most important basis functions are
  #  listed first).
  #
  #  Constructed for dimers: 1.625 A, 1.875 A, 2.5 A, 3.25 A, 4.0 A
  #
  ################################################################################
  #  "First tier" - improvements: -726.20 meV to -35.91 meV
       ionic 3 d auto
       ionic 3 p auto
       hydro 4 f 6.2
       hydro 5 g 8.6
       ionic 3 s auto
  #  "Second tier" - improvements: -16.02 meV to -1.71 meV
       hydro 4 d 6.2
  #     hydro 4 p 9.2
  #     hydro 5 f 9.8
  #     hydro 1 s 0.7
  #     hydro 5 g 13.2
  #  "Third tier" - improvements: -1.82 meV to -0.20 meV
  #     hydro 3 p 2.5
  #     hydro 4 d 6.4
  #     hydro 5 f 11.2
  #     hydro 2 s 1.5
  #  "Fourth tier" - improvements: -0.91 meV to -0.17 meV
  #     hydro 3 d 16.8
  #     hydro 5 g 18
  #     hydro 4 p 4.5
  #     hydro 3 s 2.1
  #  Further basis functions that fell out of the optimization - < -0.09 meV
  #     hydro 4 p 10.4
  #     hydro 4 d 17.6
  #     hydro 4 s 11.2
  ################################################################################
  #
  # For methods that use the localized form of the "resolution of identity" for
  # the two-electron Coulomb operator (RI_method LVL), particularly Hartree-Fock and
  # hybrid density functional calculations, the highest accuracy can be obtained by
  # uncommenting the line beginning with "for_aux"  below, thus adding an extra g radial
  # function to the construction of the product basis set for the expansion.
  # See Ref. New J. Phys. 17, 093020 (2015) for more information, particularly Figs. 1 and 6.
  #
  ################################################################################
  #
  # for_aux hydro 5 g 6.0
  ################################################################################
  #
  #  FHI-aims code project
  # Volker Blum, Fritz Haber Institute Berlin, 2009
  #
  #  Suggested "tight" defaults for S atom (to be pasted into control.in file)
  #
  #  Revised Jan 04, 2011, following tests (SiC) done by Lydia Nemec:
  #     d and g functions of tier 2 now enabled by default.
  #
  ################################################################################
    species        S
  #     global species definitions
      nucleus             16
      mass                32.065
  #
      l_hartree           6
  #
      cut_pot             4.0          2.0  1.0
      basis_dep_cutoff    1e-4
  #
      radial_base         44 7.0
      radial_multiplier   2
      angular_grids       specified
        division   0.4665  110
        division   0.5810  194
        division   0.7139  302
        division   0.8274  434
  #      division   0.9105  590
  #      division   1.0975  770
  #      division   1.2028  974
  #      outer_grid  974
        outer_grid  434
  ################################################################################
  #
  #  Definition of "minimal" basis
  #
  ################################################################################
  #     valence basis states
      valence      3  s   2.
      valence      3  p   4.
  #     ion occupancy
      ion_occ      3  s   1.
      ion_occ      3  p   3.
  ################################################################################
  #
  #  Suggested additional basis functions. For production calculations,
  #  uncomment them one after another (the most important basis functions are
  #  listed first).
  #
  #  Constructed for dimers: 1.6 A, 1.9 A, 2.5 A, 3.25 A, 4.0 A
  #
  ################################################################################
  #  "First tier" - improvements: -652.81 meV to -45.53 meV
       ionic 3 d auto
       hydro 2 p 1.8
       hydro 4 f 7
       ionic 3 s auto
  #  "Second tier" - improvements: -30.20 meV to -1.74 meV
       hydro 4 d 6.2
       hydro 5 g 10.8
  #     hydro 4 p 4.9
  #     hydro 5 f 10
  #     hydro 1 s 0.8
  #  "Third tier" - improvements: -1.04 meV to -0.20 meV
  #     hydro 3 d 3.9
  #     hydro 3 d 2.7
  #     hydro 5 g 12
  #     hydro 4 p 10.4
  #     hydro 5 f 12.4
  #     hydro 2 s 1.9
  #  "Fourth tier" - improvements: -0.35 meV to -0.06 meV
  #     hydro 4 d 10.4
  #     hydro 4 p 7.2
  #     hydro 4 d 10
  #     hydro 5 g 19.2
  #     hydro 4 s 12
  
  ################################################################################
  #
  # For methods that use the localized form of the "resolution of identity" for
  # the two-electron Coulomb operator (RI_method LVL), particularly Hartree-Fock and
  # hybrid density functional calculations, the highest accuracy can be obtained by
  # uncommenting the line beginning with "for_aux"  below, thus adding an extra g radial
  # function to the construction of the product basis set for the expansion.
  # See Ref. New J. Phys. 17, 093020 (2015) for more information, particularly Figs. 1 and 6.
  #
  ################################################################################
  #
  # for_aux hydro 5 g 6.0
  ################################################################################
  #
  #  FHI-aims code project
  # Volker Blum, Fritz Haber Institute Berlin, 2009
  #
  #  Suggested "tight" defaults for Cl atom (to be pasted into control.in file)
  #
  #  Revised Jan 04, 2011, following tests (SiC) done by Lydia Nemec:
  #     d function of tier 2 now enabled by default.
  #
  ################################################################################
    species        Cl
  #     global species definitions
      nucleus             17
      mass                35.453
  #
      l_hartree           6
  #
      cut_pot             4.0          2.0  1.0
      basis_dep_cutoff    1e-4
  #
      radial_base         45 7.0
      radial_multiplier   2
      angular_grids       specified
        division   0.4412  110
        division   0.5489  194
        division   0.6734  302
        division   0.7794  434
  #      division   0.9402  590
  #      division   1.0779  770
  #      division   1.1792  974
  #      outer_grid  974
        outer_grid  434
  ################################################################################
  #
  #  Definition of "minimal" basis
  #
  ################################################################################
  #     valence basis states
      valence      3  s   2.
      valence      3  p   5.
  #     ion occupancy
      ion_occ      3  s   1.
      ion_occ      3  p   4.
  ################################################################################
  #
  #  Suggested additional basis functions. For production calculations,
  #  uncomment them one after another (the most important basis functions are
  #  listed first).
  #
  #  Constructed for dimers: 1.65 A, 2.0 A, 2.5 A, 3.25 A, 4.0 A
  #
  ################################################################################
  #  "First tier" - improvements: -429.57 meV to -15.03 meV
       ionic 3 d auto
       hydro 2 p 1.9
       hydro 4 f 7.4
       ionic 3 s auto
       hydro 5 g 10.4
  #  "Second tier" - improvements: -7.84 meV to -0.48 meV
       hydro 3 d 3.3
  #     hydro 5 f 9.8
  #     hydro 1 s 0.75
  #     hydro 5 g 11.2
  #     hydro 4 p 10.4
  #  "Third tier" - improvements: -1.00 meV to -0.12 meV
  #     hydro 4 d 12.8
  #     hydro 4 f 4.6
  #     hydro 4 d 10.8
  #     hydro 2 s 1.8
  #     hydro 3 p 3
  #  Further functions that fell out - improvements: -0.10 meV and below
  #     hydro 5 f 14.4
  #     hydro 4 s 12.8
  #     hydro 3 d 11.6
  #     hydro 4 s 4.1
  ################################################################################
  #
  # For methods that use the localized form of the "resolution of identity" for
  # the two-electron Coulomb operator (RI_method LVL), particularly Hartree-Fock and
  # hybrid density functional calculations, the highest accuracy can be obtained by
  # uncommenting the line beginning with "for_aux"  below, thus adding an extra g radial
  # function to the construction of the product basis set for the expansion.
  # See Ref. New J. Phys. 17, 093020 (2015) for more information, particularly Figs. 1 and 6.
  #
  ################################################################################
  #
  # for_aux hydro 5 g 6.0
  
  -----------------------------------------------------------------------
  Completed first pass over input file control.in .
  -----------------------------------------------------------------------
  
  
  -----------------------------------------------------------------------
  Parsing geometry.in (first pass over file, find array dimensions only).
  The contents of geometry.in will be repeated verbatim below
  unless switched off by setting 'verbatim_writeout .false.' .
  in the first line of geometry.in .
  -----------------------------------------------------------------------
  
  #=======================================================
  # FHI-aims file: ./data/test_rep/geometry.in.4
  # Created using the Atomic Simulation Environment (ASE)
  # Mon Jul  4 10:21:46 2022
  #=======================================================
  lattice_vector 19.6024505424659985 0.0000000000000000 0.0000000000000000
  lattice_vector 0.0000000000000000 16.2728927421389997 0.0000000000000000
  lattice_vector 0.0000000000000000 0.0000000000000000 7.5231822824729999
  atom 2.7055636957800000 2.4083767600199999 4.6625107765499996 Li
  atom 1.7500944057299999 8.1657860862599989 4.2319631227499999 Li
  atom 8.9738190224099998 3.6805454452799999 2.8352335037399996 Li
  atom 6.8463776274299999 1.3970351231099998 6.3404372928599999 Li
  atom 8.0574854847299999 0.9282040188300000 3.0727001418300000 Li
  atom 6.6943230136200000 5.9484096668699999 3.4635142733399999 Li
  atom 12.5421528424499993 2.4020762723100000 2.5929641004299997 Li
  atom 11.9587908636899982 8.4729719012400011 4.3815405536099998 Li
  atom 19.2393769847400016 4.6075219452900003 4.2577883320499996 Li
  atom 13.9425854287500002 2.9107086812100000 6.3072598455900000 Li
  atom 17.8370971623899983 1.0385986485600001 4.5883937889899995 Li
  atom 15.9029454533399992 7.2412106728499994 5.3467779281399999 Li
  atom 3.4500125820599998 11.0580161986800007 4.6029561187499999 Li
  atom 1.3578542980199999 16.2097244297999978 4.2989982670800000 Li
  atom 9.1240585316100002 12.3588075699000015 4.0449769846199999 Li
  atom 6.5785997069099995 8.7595911077400004 4.7317310548200000 Li
  atom 8.2872414276300006 9.1127443195799991 2.2190866641899998 Li
  atom 6.5387357501399999 14.4115817788800005 4.5930021667199998 Li
  atom 12.4554250616399997 11.0285154738000006 2.6108624252699997 Li
  atom 11.3465215729799986 16.1759035924199992 3.4518148592399998 Li
  atom 0.1651153957200000 12.7651930282800006 4.4167982067000002 Li
  atom 16.1885647984499990 10.3405845648600003 6.2806893672599999 Li
  atom 18.2878413963299984 8.7878609794799996 3.2373416799900001 Li
  atom 16.4745416731500001 14.9484231953099993 5.2190549779500000 Li
  atom 9.0875712430800011 7.1419926015900002 4.4745273599399997 P
  atom 4.6702870988400003 0.6425349282000000 3.3735089886299998 P
  atom 19.0669110578099996 7.9217336652299988 6.3291071507399996 P
  atom 14.8184322531300001 1.1451469203900000 2.9108329568999998 P
  atom 9.2163823497900008 15.5682943841699988 5.2582676652000000 P
  atom 4.4124761894400004 8.4625498960199987 2.7333545966100004 P
  atom 19.0759532822099978 15.9103747608300008 6.4551014550000003 P
  atom 14.7057870890700002 8.8762283319600002 3.2848157707199999 P
  atom 1.1956233831300001 0.7306841054700000 6.6945707215199999 S
  atom 2.8986603030000002 0.4128018533100000 2.4960924360900001 S
  atom 5.4474236477100000 2.5916539532400003 2.2885423614900002 S
  atom 8.9524209970800008 6.1335847900800005 2.6203932958500000 S
  atom 7.7654306089800000 15.3507116258099998 6.5986306432199999 S
  atom 6.1794653253299998 7.6485510367199998 2.2337554932000003 S
  atom 10.7877835632600014 6.4421925371099995 5.4629079644700003 S
  atom 4.5422786811600000 1.2285792189000000 5.3557637492700003 S
  atom 0.3709737108000000 2.6270157830399996 2.2565162228399998 S
  atom 1.2621155471100001 4.5482838300899999 2.3644424776499999 S
  atom 7.1381561783400000 2.1850638390899997 1.3111022251800000 S
  atom 7.6334700875400001 3.0157859179799997 4.7342574338400008 S
  atom 11.0870603018999994 4.6232960786100001 4.3948567327500001 S
  atom 6.0012543887999996 3.8346662425500000 4.1068275355799999 S
  atom 3.0836216535300003 4.4820490532399999 3.3457703855399998 S
  atom 2.9620259836200002 5.7328007358599997 5.1238606161600000 S
  atom 0.3866546217600000 2.1936298635900000 4.2067836330299997 S
  atom 2.2401043770600002 4.6317874185000001 6.5900156632200000 S
  atom 9.8231689373399984 1.1976560768700000 5.0719474258199995 S
  atom 13.9261706179200004 1.0331331575400000 1.1314330127100001 S
  atom 15.7888993808699993 3.1476499876799999 2.9731451527800004 S
  atom 18.9585585842399986 6.9513198578999997 4.4144946905399998 S
  atom 17.3867677097399991 0.5352090074100000 6.9257891221200003 S
  atom 16.0172427313799979 7.4978921971799997 2.8944018516599996 S
  atom 19.1734501790700023 6.3853564777200003 0.1792122898500000 S
  atom 13.3802440823700000 1.2664830182400000 4.3981324160399993 S
  atom 10.1912338865700001 1.6786689598800000 0.3670656234300000 S
  atom 10.0222579610999993 3.6226407551399999 0.1108313979300000 S
  atom 17.0736501384899988 3.3254378051400000 4.5042954966900002 S
  atom 16.1375759493299995 3.9915765875700000 6.4119355274699998 S
  atom 0.1559665176300000 4.6880798263200001 6.6440933608500004 S
  atom 14.7467475866699989 5.2237660444199996 6.0158105746199997 S
  atom 12.0312758827800010 4.3331913919799998 7.5165259860900004 S
  atom 12.4548093162899995 5.7271338610199996 1.5854898044700001 S
  atom 10.2950424640799998 1.6635111015600001 2.4136223443199998 S
  atom 12.8445714005399996 4.8852952998300001 3.3063857303399997 S
  atom 1.0719316079999999 9.1590570135900009 6.5508895207800002 S
  atom 2.7619157798100002 7.6355320169700001 1.8756920288700001 S
  atom 4.6515851514000000 10.4419578423599990 2.0448985609800001 S
  atom 8.8638921330299993 14.4942885618299986 3.4516662097499999 S
  atom 7.4865196157399998 6.9066516964500000 5.6593929120300004 S
  atom 6.0554265363899997 15.6629867159699998 2.7629323801200001 S
  atom 11.1315505266900008 15.0536995121700006 5.9306513280300006 S
  atom 4.2147281929500000 8.8323210884699996 4.7651919024599998 S
  atom 1.2717797974200000 11.0020409611200005 2.0136058073999998 S
  atom 1.6276848003900000 13.0421991595500000 2.4083648839800000 S
  atom 6.6019968580500006 11.0871599849999996 2.2990198393800001 S
  atom 6.9476168995199998 11.2304589190200002 4.4059119964200004 S
  atom 11.0171048624999983 12.9911754663900005 5.5322632163699996 S
  atom 5.5816824056400005 12.3757436929499995 5.3750806391700001 S
  atom 3.4078728806099998 13.2434132113800000 3.5300202854400000 S
  atom 3.0029788859400002 14.4509176943999993 5.2720223955300005 S
  atom 0.8888881815000000 10.3967819178299994 3.8984066351999997 S
  atom 2.5371226039499999 13.3432471943100008 6.8272325332200001 S
  atom 9.6328136817000001 9.1193534902800000 4.4569965132000000 S
  atom 12.9881054793599997 8.7651420743700008 2.2412267865900000 S
  atom 15.4503364583699998 10.7256391020899997 2.5493167972800004 S
  atom 18.8880598397699977 14.9330486764800003 4.5357564057299999 S
  atom 17.3282602244400010 8.5781696526900006 7.1048539811699998 S
  atom 16.1836750567800003 16.0946866376999971 3.0937194456299997 S
  atom 19.0747825487999982 14.3903750106599997 0.2929196565900000 S
  atom 14.2033038948899986 9.0956859840000011 5.2719587207100007 S
  atom 10.3569803627399999 12.1780902909600002 0.8263502517600000 S
  atom 11.4766658206199992 13.8802108232699997 1.4573967982200000 S
  atom 17.4200588486100010 10.9574654290200009 2.7651336570000002 S
  atom 17.6669820498600032 11.5919410048199989 4.9454195046300002 S
  atom 0.4823954536500000 12.8922454673099995 6.8181987317399999 S
  atom 16.0916556061799980 12.5819034679800001 5.6648281694399998 S
  atom 13.3957545539399998 13.2430902209100001 1.7256619215000000 S
  atom 13.7355571465199997 13.9091606220599999 3.7131760482299998 S
  atom 10.1028189418199990 10.9524818779200004 2.3402156490900001 S
  atom 12.9802082830199996 12.5323560232200002 4.9067592670800000 S
  
  -----------------------------------------------------------------------
  Completed first pass over input file geometry.in .
  -----------------------------------------------------------------------
  

  Basic array size parameters:
  | Number of species                 :        4
  | Number of atoms                   :      104
  | Number of lattice vectors         :        3
  | Max. basis fn. angular momentum   :        4
  | Max. atomic/ionic basis occupied n:        3
  | Max. number of basis fn. types    :        3
  | Max. radial fns per species/type  :        8
  | Max. logarithmic grid size        :     1362
  | Max. radial integration grid size :       91
  | Max. angular integration grid size:      434
  | Max. angular grid division number :        8
  | Radial grid for Hartree potential :     1362
  | Number of spin channels           :        1

------------------------------------------------------------
          Reading file control.in.
------------------------------------------------------------
  XC: Using PBE gradient-corrected functionals.
  Convergence accuracy of total energy:  0.1000E-05
  Convergence accuracy of sum of eigenvalues:  0.1000E-02
  Convergence accuracy of self-consistent charge density:  0.1000E-05
  Convergence accuracy of forces:  0.1000E-03
  Friction is calculated at temperature of   0.3000E+03 K
  Found k-point grid:         1         1         2
 
  Reading configuration options for species Li                  .
  | Found nuclear charge :   3.0000
  | Found atomic mass :    6.94100000000000      amu
  | Found l_max for Hartree potential  :   6
  | Found cutoff potl. onset [A], width [A], scale factor :    5.00000    2.00000    1.00000
  | Threshold for basis-dependent cutoff potential is   0.100000E-03
  | Found data for basic radial integration grid :    29 points, outermost radius =    7.000 A
  | Found multiplier for basic radial grid :   2
  | Found angular grid specification: user-specified.
  | Specified grid contains     5 separate shells.
  | Check grid settings after all constraints further below.
  | Found free-atom valence shell :  2 s   1.000
  | Found free-ion valence shell :  1 s   2.000
  | Found hydrogenic basis function :  2 p   1.600
  | Found hydrogenic basis function :  2 s   2.000
  | Found hydrogenic basis function :  3 d   2.600
  | Found hydrogenic basis function :  3 p   4.600
  | Found hydrogenic basis function :  2 p   1.800
  | Found hydrogenic basis function :  3 s   6.200
  | Found hydrogenic basis function :  4 d   4.700
  | Found hydrogenic basis function :  4 f   4.100
  Species Li                  : Missing cutoff potential type.
  Defaulting to exp(1/x)/(1-x)^2 type cutoff potential.
  Species Li: No 'logarithmic' tag. Using default grid for free atom:
  | Default logarithmic grid data [bohr] : 0.1000E-03 0.1000E+03 0.1012E+01
  Species Li: On-site basis accuracy parameter (for Gram-Schmidt orthonormalisation) not specified.
  Using default value basis_acc =  0.1000000E-03.
  Species Li                  : Using default innermost maximum threshold i_radial=  2 for radial functions.
  Species Li                  : Default cutoff onset for free atom density etc. : 0.50000000E+01 AA.
  Species Li                  : Basic radial grid will be enhanced according to radial_multiplier =   2, to contain    59 grid points.
 
  Reading configuration options for species P                   .
  | Found nuclear charge :  15.0000
  | Found atomic mass :    30.9737620000000      amu
  | Found l_max for Hartree potential  :   6
  | Found cutoff potl. onset [A], width [A], scale factor :    4.00000    2.00000    1.00000
  | Threshold for basis-dependent cutoff potential is   0.100000E-03
  | Found data for basic radial integration grid :    43 points, outermost radius =    7.000 A
  | Found multiplier for basic radial grid :   2
  | Found angular grid specification: user-specified.
  | Specified grid contains     6 separate shells.
  | Check grid settings after all constraints further below.
  | Found free-atom valence shell :  3 s   2.000
  | Found free-atom valence shell :  3 p   3.000
  | Found free-ion valence shell :  3 s   1.000
  | Found free-ion valence shell :  3 p   2.000
  | Found ionic basis function :  3 d , default cutoff radius.
  | Found ionic basis function :  3 p , default cutoff radius.
  | Found hydrogenic basis function :  4 f   6.200
  | Found hydrogenic basis function :  5 g   8.600
  | Found ionic basis function :  3 s , default cutoff radius.
  | Found hydrogenic basis function :  4 d   6.200
  Species P                   : Missing cutoff potential type.
  Defaulting to exp(1/x)/(1-x)^2 type cutoff potential.
  Species P : No 'logarithmic' tag. Using default grid for free atom:
  | Default logarithmic grid data [bohr] : 0.1000E-03 0.1000E+03 0.1012E+01
  | Will include ionic basis functions of  2.0-fold positive P                    ion.
  Species P : On-site basis accuracy parameter (for Gram-Schmidt orthonormalisation) not specified.
  Using default value basis_acc =  0.1000000E-03.
  Species P                   : Using default innermost maximum threshold i_radial=  2 for radial functions.
  Species P                   : Default cutoff onset for free atom density etc. : 0.40000000E+01 AA.
  Species P                   : Basic radial grid will be enhanced according to radial_multiplier =   2, to contain    87 grid points.
 
  Reading configuration options for species S                   .
  | Found nuclear charge :  16.0000
  | Found atomic mass :    32.0650000000000      amu
  | Found l_max for Hartree potential  :   6
  | Found cutoff potl. onset [A], width [A], scale factor :    4.00000    2.00000    1.00000
  | Threshold for basis-dependent cutoff potential is   0.100000E-03
  | Found data for basic radial integration grid :    44 points, outermost radius =    7.000 A
  | Found multiplier for basic radial grid :   2
  | Found angular grid specification: user-specified.
  | Specified grid contains     5 separate shells.
  | Check grid settings after all constraints further below.
  | Found free-atom valence shell :  3 s   2.000
  | Found free-atom valence shell :  3 p   4.000
  | Found free-ion valence shell :  3 s   1.000
  | Found free-ion valence shell :  3 p   3.000
  | Found ionic basis function :  3 d , default cutoff radius.
  | Found hydrogenic basis function :  2 p   1.800
  | Found hydrogenic basis function :  4 f   7.000
  | Found ionic basis function :  3 s , default cutoff radius.
  | Found hydrogenic basis function :  4 d   6.200
  | Found hydrogenic basis function :  5 g  10.800
  Species S                   : Missing cutoff potential type.
  Defaulting to exp(1/x)/(1-x)^2 type cutoff potential.
  Species S : No 'logarithmic' tag. Using default grid for free atom:
  | Default logarithmic grid data [bohr] : 0.1000E-03 0.1000E+03 0.1012E+01
  | Will include ionic basis functions of  2.0-fold positive S                    ion.
  Species S : On-site basis accuracy parameter (for Gram-Schmidt orthonormalisation) not specified.
  Using default value basis_acc =  0.1000000E-03.
  Species S                   : Using default innermost maximum threshold i_radial=  2 for radial functions.
  Species S                   : Default cutoff onset for free atom density etc. : 0.40000000E+01 AA.
  Species S                   : Basic radial grid will be enhanced according to radial_multiplier =   2, to contain    89 grid points.
 
  Reading configuration options for species Cl                  .
  | Found nuclear charge :  17.0000
  | Found atomic mass :    35.4530000000000      amu
  | Found l_max for Hartree potential  :   6
  | Found cutoff potl. onset [A], width [A], scale factor :    4.00000    2.00000    1.00000
  | Threshold for basis-dependent cutoff potential is   0.100000E-03
  | Found data for basic radial integration grid :    45 points, outermost radius =    7.000 A
  | Found multiplier for basic radial grid :   2
  | Found angular grid specification: user-specified.
  | Specified grid contains     5 separate shells.
  | Check grid settings after all constraints further below.
  | Found free-atom valence shell :  3 s   2.000
  | Found free-atom valence shell :  3 p   5.000
  | Found free-ion valence shell :  3 s   1.000
  | Found free-ion valence shell :  3 p   4.000
  | Found ionic basis function :  3 d , default cutoff radius.
  | Found hydrogenic basis function :  2 p   1.900
  | Found hydrogenic basis function :  4 f   7.400
  | Found ionic basis function :  3 s , default cutoff radius.
  | Found hydrogenic basis function :  5 g  10.400
  | Found hydrogenic basis function :  3 d   3.300
  Species Cl                  : Missing cutoff potential type.
  Defaulting to exp(1/x)/(1-x)^2 type cutoff potential.
  Species Cl: No 'logarithmic' tag. Using default grid for free atom:
  | Default logarithmic grid data [bohr] : 0.1000E-03 0.1000E+03 0.1012E+01
  | Will include ionic basis functions of  2.0-fold positive Cl                   ion.
  Species Cl: On-site basis accuracy parameter (for Gram-Schmidt orthonormalisation) not specified.
  Using default value basis_acc =  0.1000000E-03.
  Species Cl                  : Using default innermost maximum threshold i_radial=  2 for radial functions.
  Species Cl                  : Default cutoff onset for free atom density etc. : 0.40000000E+01 AA.
  Species Cl                  : Basic radial grid will be enhanced according to radial_multiplier =   2, to contain    91 grid points.
 
  Finished reading input file 'control.in'. Consistency checks are next.
 
  MPI_IN_PLACE appears to work with this MPI implementation.
  | Keeping use_mpi_in_place .true. (see manual).
  Target number of points in a grid batch is not set. Defaulting to  100
  Method for grid partitioning is not set. Defaulting to parallel hash+maxmin partitioning.
  Batch size limit is not set. Defaulting to    200
  By default, will store active basis functions for each batch.
  If in need of memory, prune_basis_once .false. can be used to disable this option.
  communication_type for Hartree potential was not specified.
  Defaulting to calc_hartree .
  Defaulting to Pulay charge density mixer.
  Pulay mixer: Number of relevant iterations not set.
  Defaulting to    8 iterations.
  Pulay mixer: Number of initial linear mixing iterations not set.
  Defaulting to    0 iterations.
  Work space size for distributed Hartree potential not set.
  Defaulting to   0.200000E+03 MB.
  Mixing parameter for charge density mixing has not been set.
  Using default: charge_mix_param =     0.0500.
  The mixing parameter will be adjusted in iteration number     2 of the first full s.c.f. cycle only.
  Algorithm-dependent basis array size parameters:
  | n_max_pulay                         :        8
  Maximum number of self-consistency iterations not provided.
  Presetting  1000 iterations.
  Presetting      1001 iterations before the initial mixing cycle
  is restarted anyway using the sc_init_iter criterion / keyword.
  Presetting a factor      1.000 between actual scf density residual
  and density convergence criterion sc_accuracy_rho below which sc_init_iter
  takes no effect.
  Geometry relaxation not requested: no relaxation will be performed.
  Handling of forces: Unphysical translation and rotation will be removed from forces.
  No accuracy limit for integral partition fn. given. Defaulting to  0.1000E-14.
  No threshold value for u(r) in integrations given. Defaulting to  0.1000E-05.
  No occupation type (smearing scheme) given. Defaulting to Gaussian broadening, width =  0.1000E-01 eV.
  The width will be adjusted in iteration number     2 of the first full s.c.f. cycle only.
  S.C.F. convergence parameters will be adjusted in iteration number     2 of the first full s.c.f. cycle only.
  No accuracy for occupation numbers given. Defaulting to  0.1000E-12.
  No threshold value for occupation numbers given. Defaulting to  0.0000E+00.
  No accuracy for fermi level given. Defaulting to  0.1000E-19.
  Maximum # of iterations to find E_F not set. Defaulting to  200.
  Preferred method for the eigenvalue solver ('KS_method') not specified in 'control.in'.
  Calling BLACS routine to test compilation state
  Since ScaLAPACK support is enabled, defaulting to 'elsi'.
  Will not use alltoall communication since running on < 1024 CPUs.
  Threshold for basis singularities not set.
  Default threshold for basis singularities:  0.1000E-04
  partition_type (choice of integration weights) for integrals was not specified.
  | Using a version of the partition function of Stratmann and coworkers ('stratmann_smoother').
  | At each grid point, the set of atoms used to build the partition table is smoothly restricted to
  | only those atoms whose free-atom density would be non-zero at that grid point.
  Partitioning for Hartree potential was not defined. Using partition_type for integrals.
  | Adjusted default value of keyword multip_moments_threshold to:       0.10000000E-11
  | This value may affect high angular momentum components of the Hartree potential in periodic systems.
  Spin handling was not defined in control.in. Defaulting to unpolarized case.
  Angular momentum expansion for Kerker preconditioner not set explicitly.
  | Using default value of   0
  No explicit requirement for turning off preconditioner.
  | By default, it will be turned off when the charge convergence reaches
  | sc_accuracy_rho  =   0.100000E-05
  | sc_accuracy_eev  =   0.100000E-02
  | sc_accuracy_etot =   0.100000E-05
  No special mixing parameter while Kerker preconditioner is on.
  Using default: charge_mix_param =     0.0500.
  No q(lm)/r^(l+1) cutoff set for long-range Hartree potential.
  | Using default value of  0.100000E-09 .
  | Verify using the multipole_threshold keyword.
  Defaulting to new monopole extrapolation.
  Density update method: automatic selection selected.
  Using density matrix based charge density update.
  Using density matrix based charge density update.
  Using packed matrix style: index .
  Defaulting to use time-reversal symmetry for k-point grid.
------------------------------------------------------------


------------------------------------------------------------
          Reading geometry description geometry.in.
------------------------------------------------------------
 * Warning! You did not set the 'relativistic' flag in input file 'control.in'.
 * Since you are not attempting to treat any elements beyond Ca(Z=20), FHI-aims
 * will default to 'relativistic none'.
 * You must ensure that this is really what you want!!
 * For example, DO NOT compute total-energy differences between results from
 * different settings of the 'relativistic' flag.
  Input structure read successfully.
  The structure contains      104 atoms,  and a total of       1344.000 electrons.

  Input geometry:
  | Unit cell:
  |       19.60245054        0.00000000        0.00000000
  |        0.00000000       16.27289274        0.00000000
  |        0.00000000        0.00000000        7.52318228
  | Atomic structure:
  |       Atom                x [A]            y [A]            z [A]
  |    1: Species Li            2.70556370        2.40837676        4.66251078
  |    2: Species Li            1.75009441        8.16578609        4.23196312
  |    3: Species Li            8.97381902        3.68054545        2.83523350
  |    4: Species Li            6.84637763        1.39703512        6.34043729
  |    5: Species Li            8.05748548        0.92820402        3.07270014
  |    6: Species Li            6.69432301        5.94840967        3.46351427
  |    7: Species Li           12.54215284        2.40207627        2.59296410
  |    8: Species Li           11.95879086        8.47297190        4.38154055
  |    9: Species Li           19.23937698        4.60752195        4.25778833
  |   10: Species Li           13.94258543        2.91070868        6.30725985
  |   11: Species Li           17.83709716        1.03859865        4.58839379
  |   12: Species Li           15.90294545        7.24121067        5.34677793
  |   13: Species Li            3.45001258       11.05801620        4.60295612
  |   14: Species Li            1.35785430       16.20972443        4.29899827
  |   15: Species Li            9.12405853       12.35880757        4.04497698
  |   16: Species Li            6.57859971        8.75959111        4.73173105
  |   17: Species Li            8.28724143        9.11274432        2.21908666
  |   18: Species Li            6.53873575       14.41158178        4.59300217
  |   19: Species Li           12.45542506       11.02851547        2.61086243
  |   20: Species Li           11.34652157       16.17590359        3.45181486
  |   21: Species Li            0.16511540       12.76519303        4.41679821
  |   22: Species Li           16.18856480       10.34058456        6.28068937
  |   23: Species Li           18.28784140        8.78786098        3.23734168
  |   24: Species Li           16.47454167       14.94842320        5.21905498
  |   25: Species P             9.08757124        7.14199260        4.47452736
  |   26: Species P             4.67028710        0.64253493        3.37350899
  |   27: Species P            19.06691106        7.92173367        6.32910715
  |   28: Species P            14.81843225        1.14514692        2.91083296
  |   29: Species P             9.21638235       15.56829438        5.25826767
  |   30: Species P             4.41247619        8.46254990        2.73335460
  |   31: Species P            19.07595328       15.91037476        6.45510146
  |   32: Species P            14.70578709        8.87622833        3.28481577
  |   33: Species S             1.19562338        0.73068411        6.69457072
  |   34: Species S             2.89866030        0.41280185        2.49609244
  |   35: Species S             5.44742365        2.59165395        2.28854236
  |   36: Species S             8.95242100        6.13358479        2.62039330
  |   37: Species S             7.76543061       15.35071163        6.59863064
  |   38: Species S             6.17946533        7.64855104        2.23375549
  |   39: Species S            10.78778356        6.44219254        5.46290796
  |   40: Species S             4.54227868        1.22857922        5.35576375
  |   41: Species S             0.37097371        2.62701578        2.25651622
  |   42: Species S             1.26211555        4.54828383        2.36444248
  |   43: Species S             7.13815618        2.18506384        1.31110223
  |   44: Species S             7.63347009        3.01578592        4.73425743
  |   45: Species S            11.08706030        4.62329608        4.39485673
  |   46: Species S             6.00125439        3.83466624        4.10682754
  |   47: Species S             3.08362165        4.48204905        3.34577039
  |   48: Species S             2.96202598        5.73280074        5.12386062
  |   49: Species S             0.38665462        2.19362986        4.20678363
  |   50: Species S             2.24010438        4.63178742        6.59001566
  |   51: Species S             9.82316894        1.19765608        5.07194743
  |   52: Species S            13.92617062        1.03313316        1.13143301
  |   53: Species S            15.78889938        3.14764999        2.97314515
  |   54: Species S            18.95855858        6.95131986        4.41449469
  |   55: Species S            17.38676771        0.53520901        6.92578912
  |   56: Species S            16.01724273        7.49789220        2.89440185
  |   57: Species S            19.17345018        6.38535648        0.17921229
  |   58: Species S            13.38024408        1.26648302        4.39813242
  |   59: Species S            10.19123389        1.67866896        0.36706562
  |   60: Species S            10.02225796        3.62264076        0.11083140
  |   61: Species S            17.07365014        3.32543781        4.50429550
  |   62: Species S            16.13757595        3.99157659        6.41193553
  |   63: Species S             0.15596652        4.68807983        6.64409336
  |   64: Species S            14.74674759        5.22376604        6.01581057
  |   65: Species S            12.03127588        4.33319139        7.51652599
  |   66: Species S            12.45480932        5.72713386        1.58548980
  |   67: Species S            10.29504246        1.66351110        2.41362234
  |   68: Species S            12.84457140        4.88529530        3.30638573
  |   69: Species S             1.07193161        9.15905701        6.55088952
  |   70: Species S             2.76191578        7.63553202        1.87569203
  |   71: Species S             4.65158515       10.44195784        2.04489856
  |   72: Species S             8.86389213       14.49428856        3.45166621
  |   73: Species S             7.48651962        6.90665170        5.65939291
  |   74: Species S             6.05542654       15.66298672        2.76293238
  |   75: Species S            11.13155053       15.05369951        5.93065133
  |   76: Species S             4.21472819        8.83232109        4.76519190
  |   77: Species S             1.27177980       11.00204096        2.01360581
  |   78: Species S             1.62768480       13.04219916        2.40836488
  |   79: Species S             6.60199686       11.08715998        2.29901984
  |   80: Species S             6.94761690       11.23045892        4.40591200
  |   81: Species S            11.01710486       12.99117547        5.53226322
  |   82: Species S             5.58168241       12.37574369        5.37508064
  |   83: Species S             3.40787288       13.24341321        3.53002029
  |   84: Species S             3.00297889       14.45091769        5.27202240
  |   85: Species S             0.88888818       10.39678192        3.89840664
  |   86: Species S             2.53712260       13.34324719        6.82723253
  |   87: Species S             9.63281368        9.11935349        4.45699651
  |   88: Species S            12.98810548        8.76514207        2.24122679
  |   89: Species S            15.45033646       10.72563910        2.54931680
  |   90: Species S            18.88805984       14.93304868        4.53575641
  |   91: Species S            17.32826022        8.57816965        7.10485398
  |   92: Species S            16.18367506       16.09468664        3.09371945
  |   93: Species S            19.07478255       14.39037501        0.29291966
  |   94: Species S            14.20330389        9.09568598        5.27195872
  |   95: Species S            10.35698036       12.17809029        0.82635025
  |   96: Species S            11.47666582       13.88021082        1.45739680
  |   97: Species S            17.42005885       10.95746543        2.76513366
  |   98: Species S            17.66698205       11.59194100        4.94541950
  |   99: Species S             0.48239545       12.89224547        6.81819873
  |  100: Species S            16.09165561       12.58190347        5.66482817
  |  101: Species S            13.39575455       13.24309022        1.72566192
  |  102: Species S            13.73555715       13.90916062        3.71317605
  |  103: Species S            10.10281894       10.95248188        2.34021565
  |  104: Species S            12.98020828       12.53235602        4.90675927

  Lattice parameters for 3D lattice (in Angstroms) :    19.602451   16.272893    7.523182
  Angle(s) between unit vectors (in degrees)      :    90.000000   90.000000   90.000000

  |

  | The smallest distance between any two atoms is         1.89989720 AA.
  |
  | The first atom of this pair is atom number                     62 .
  | The second atom of this pair is atom number                    64 .
  | Wigner-Seitz cell of the first atom image           0     0     0 .
  | (The Wigner-Seitz cell of the second atom is 0 0 0  by definition.)

  Symmetry information by spglib:
  | Precision set to  0.1E-04
  | Number of Operations  : 1
  | Space group           : 1
  | International         : P1
  | Schoenflies           : C1^1

  Quantities derived from the lattice vectors:
  | Reciprocal lattice vector 1:  0.320531  0.000000  0.000000
  | Reciprocal lattice vector 2:  0.000000  0.386114  0.000000
  | Reciprocal lattice vector 3:  0.000000  0.000000  0.835177
  | Unit cell volume                               :   0.239981E+04  A^3

  Range separation radius for Ewald summation (hartree_convergence_parameter):      4.09554951 bohr.

  Fractional coordinates:
                         L1                L2                L3
       atom_frac         0.13802171        0.14799930        0.61975247  Li
       atom_frac         0.08927937        0.50180298        0.56252301  Li
       atom_frac         0.45779067        0.22617647        0.37686625  Li
       atom_frac         0.34926131        0.08585045        0.84278661  Li
       atom_frac         0.41104481        0.05703989        0.40843090  Li
       atom_frac         0.34150440        0.36554101        0.46037889  Li
       atom_frac         0.63982576        0.14761212        0.34466320  Li
       atom_frac         0.61006612        0.52068013        0.58240521  Li
       atom_frac         0.98147815        0.28314093        0.56595576  Li
       atom_frac         0.71126747        0.17886855        0.83837658  Li
       atom_frac         0.90994221        0.06382385        0.60990065  Li
       atom_frac         0.81127334        0.44498608        0.71070695  Li
       atom_frac         0.17599905        0.67953599        0.61183631  Li
       atom_frac         0.06926962        0.99611819        0.57143348  Li
       atom_frac         0.46545500        0.75947207        0.53766835  Li
       atom_frac         0.33560088        0.53829342        0.62895340  Li
       atom_frac         0.42276558        0.55999535        0.29496649  Li
       atom_frac         0.33356726        0.88561893        0.61051321  Li
       atom_frac         0.63540143        0.67772311        0.34704229  Li
       atom_frac         0.57883179        0.99403983        0.45882377  Li
       atom_frac         0.00842320        0.78444523        0.58709174  Li
       atom_frac         0.82584393        0.63544846        0.83484477  Li
       atom_frac         0.93293649        0.54003066        0.43031546  Li
       atom_frac         0.84043276        0.91860884        0.69372970  Li
       atom_frac         0.46359363        0.43888894        0.59476525  P
       atom_frac         0.23825017        0.03948499        0.44841516  P
       atom_frac         0.97267997        0.48680550        0.84128058  P
       atom_frac         0.75594795        0.07037144        0.38691512  P
       atom_frac         0.47016481        0.95670110        0.69894195  P
       atom_frac         0.22509819        0.52003968        0.36332425  P
       atom_frac         0.97314125        0.97772259        0.85802805  P
       atom_frac         0.75020146        0.54546100        0.43662584  P
       atom_frac         0.06099357        0.04490192        0.88985890  S
       atom_frac         0.14787234        0.02536745        0.33178678  S
       atom_frac         0.27789503        0.15926203        0.30419871  S
       atom_frac         0.45669907        0.37692037        0.34830916  S
       atom_frac         0.39614591        0.94333023        0.87710631  S
       atom_frac         0.31523943        0.47001791        0.29691631  S
       atom_frac         0.55032831        0.39588490        0.72614324  S
       atom_frac         0.23171994        0.07549851        0.71190137  S
       atom_frac         0.01892486        0.16143508        0.29994172  S
       atom_frac         0.06438560        0.27950063        0.31428754  S
       atom_frac         0.36414611        0.13427630        0.17427495  S
       atom_frac         0.38941407        0.18532574        0.62928921  S
       atom_frac         0.56559563        0.28411028        0.58417523  S
       atom_frac         0.30614817        0.23564748        0.54588968  S
       atom_frac         0.15730797        0.27543038        0.44472808  S
       atom_frac         0.15110488        0.35229144        0.68107623  S
       atom_frac         0.01972481        0.13480270        0.55917609  S
       atom_frac         0.11427675        0.28463209        0.87596118  S
       atom_frac         0.50111943        0.07359823        0.67417580  S
       atom_frac         0.71043009        0.06348798        0.15039288  S
       atom_frac         0.80545539        0.19342904        0.39519781  S
       atom_frac         0.96715248        0.42717174        0.58678555  S
       atom_frac         0.88696909        0.03288960        0.92059302  S
       atom_frac         0.81710410        0.46075964        0.38473105  S
       atom_frac         0.97811496        0.39239222        0.02382134  S
       atom_frac         0.68258017        0.07782777        0.58461064  S
       atom_frac         0.51989591        0.10315738        0.04879127  S
       atom_frac         0.51127577        0.22261812        0.01473198  S
       atom_frac         0.87099570        0.20435444        0.59872210  S
       atom_frac         0.82324278        0.24528992        0.85229033  S
       atom_frac         0.00795648        0.28809136        0.88314933  S
       atom_frac         0.75229102        0.32101029        0.79963642  S
       atom_frac         0.61376387        0.26628280        0.99911523  S
       atom_frac         0.63537002        0.35194319        0.21074723  S
       atom_frac         0.52519161        0.10222590        0.32082465  S
       atom_frac         0.65525335        0.30021062        0.43949297  S
       atom_frac         0.05468355        0.56284136        0.87076044  S
       atom_frac         0.14089645        0.46921787        0.24932162  S
       atom_frac         0.23729610        0.64167804        0.27181298  S
       atom_frac         0.45218286        0.89070141        0.45880401  S
       atom_frac         0.38191754        0.42442679        0.75226051  S
       atom_frac         0.30891171        0.96252012        0.36725581  S
       atom_frac         0.56786525        0.92507827        0.78831685  S
       atom_frac         0.21501027        0.54276282        0.63340110  S
       atom_frac         0.06487861        0.67609620        0.26765347  S
       atom_frac         0.08303476        0.80146778        0.32012582  S
       atom_frac         0.33679447        0.68132693        0.30559140  S
       atom_frac         0.35442594        0.69013292        0.58564472  S
       atom_frac         0.56202692        0.79833227        0.73536211  S
       atom_frac         0.28474411        0.76051283        0.71446902  S
       atom_frac         0.17384933        0.81383276        0.46921903  S
       atom_frac         0.15319405        0.88803619        0.70077026  S
       atom_frac         0.04534577        0.63890189        0.51818585  S
       atom_frac         0.12942885        0.81996775        0.90749264  S
       atom_frac         0.49140865        0.56040150        0.59243500  S
       atom_frac         0.66257560        0.53863454        0.29790941  S
       atom_frac         0.78818393        0.65911078        0.33886150  S
       atom_frac         0.96355605        0.91766405        0.60290396  S
       atom_frac         0.88398439        0.52714473        0.94439477  S
       atom_frac         0.82559448        0.98904890        0.41122484  S
       atom_frac         0.97308153        0.88431573        0.03893561  S
       atom_frac         0.72456777        0.55894709        0.70076180  S
       atom_frac         0.52835131        0.74836665        0.10984052  S
       atom_frac         0.58547097        0.85296518        0.19372079  S
       atom_frac         0.88866740        0.67335695        0.36754841  S
       atom_frac         0.90126395        0.71234667        0.65735739  S
       atom_frac         0.02460894        0.79225284        0.90629184  S
       atom_frac         0.82090020        0.77318174        0.75298297  S
       atom_frac         0.68337142        0.81381291        0.22937925  S
       atom_frac         0.70070612        0.85474420        0.49356455  S
       atom_frac         0.51538551        0.67305070        0.31106725  S
       atom_frac         0.66217273        0.77013695        0.65221858  S

  Number of empty states per atom not set in control.in - providing a guess from actual geometry.
  | Total number of empty states used during s.c.f. cycle:      276
  If you use a very high smearing, use empty_states (per atom!) in control.in to increase this value.

  Structure-dependent array size parameters: 
  | Maximum number of distinct radial functions  :       43
  | Maximum number of basis functions            :     3840
  | Number of Kohn-Sham states (occupied + empty):      948
------------------------------------------------------------

------------------------------------------------------------
          Preparing all fixed parts of the calculation.
------------------------------------------------------------
  Determining machine precision:
    2.225073858507201E-308
  Setting up grids for atomic and cluster calculations.

  Creating wave function, potential, and density for free atoms.

  Species: Li

  List of occupied orbitals and eigenvalues:
    n    l              occ      energy [Ha]    energy [eV]
    1    0           2.0000        -1.901473       -51.7417
    2    0           1.0000        -0.103132        -2.8064


  Species: P

  List of occupied orbitals and eigenvalues:
    n    l              occ      energy [Ha]    energy [eV]
    1    0           2.0000       -76.356288     -2077.7603
    2    0           2.0000        -6.358286      -173.0178
    3    0           2.0000        -0.509419       -13.8620
    2    1           6.0000        -4.573976      -124.4642
    3    1           3.0000        -0.201560        -5.4847


  Species: S

  List of occupied orbitals and eigenvalues:
    n    l              occ      energy [Ha]    energy [eV]
    1    0           2.0000       -88.108280     -2397.5483
    2    0           2.0000        -7.732485      -210.4116
    3    0           2.0000        -0.629532       -17.1304
    2    1           6.0000        -5.750324      -156.4743
    3    1           4.0000        -0.257562        -7.0086


  Species: Cl

  List of occupied orbitals and eigenvalues:
    n    l              occ      energy [Ha]    energy [eV]
    1    0           2.0000      -100.710795     -2740.4802
    2    0           2.0000        -9.222997      -250.9705
    3    0           2.0000        -0.754245       -20.5241
    2    1           6.0000        -7.039872      -191.5647
    3    1           5.0000        -0.316221        -8.6048

  Creating fixed part of basis set: Ionic, confined, hydrogenic.
 
  Li                   hydrogenic:
 
  List of hydrogenic basis orbitals: 
    n    l      effective z      eigenvalue [eV]  inner max. [A]     outer max. [A]     outer radius [A]   
    2    1         1.600000        -8.7048           1.319365           1.319365           6.386418
    2    0         2.000000       -13.6052           0.203259           1.385485           6.232164
    3    2         2.600000       -10.2084           1.835332           1.835332           6.386418
    3    1         4.600000       -31.9883           0.343834           1.385485           5.381805
    2    1         1.800000       -11.0199           1.181903           1.181903           6.386418
    3    0         6.200000       -58.1113           0.062858           1.111823           4.371906
    4    2         4.700000       -18.7772           0.761113           2.401695           6.386418
    4    3         4.100000       -14.2833           2.073992           2.073992           6.386418
 
 
  P                    ion:

  List of free ionic orbitals and eigenvalues:
    n    l      energy [Ha]    energy [eV]
    1    0       -77.297133     -2103.3620
    2    0        -7.273914      -197.9333
    3    0        -1.267536       -34.4914
    2    1        -5.491316      -149.4263
    3    1        -0.913470       -24.8568


  List of ionic basis orbitals and eigenvalues:
    n    l      energy [Ha]    energy [eV]    outer radius [A]
    3    2        -0.458060       -12.4644       5.404780
    3    1        -0.913461       -24.8565       4.724723
    3    0        -1.267529       -34.4912       4.232463

 
  P                    hydrogenic:
 
  List of hydrogenic basis orbitals: 
    n    l      effective z      eigenvalue [eV]  inner max. [A]     outer max. [A]     outer radius [A]   
    4    3         6.200000       -32.6870           1.357793           1.357793           5.339109
    5    4         8.600000       -40.2502           1.534356           1.534356           5.404780
    4    2         6.200000       -32.6848           0.577014           1.820771           5.404780
 
 
  S                    ion:

  List of free ionic orbitals and eigenvalues:
    n    l      energy [Ha]    energy [eV]
    1    0       -89.127201     -2425.2745
    2    0        -8.724378      -237.4024
    3    0        -1.464668       -39.8556
    2    1        -6.744348      -183.5230
    3    1        -1.048520       -28.5317


  List of ionic basis orbitals and eigenvalues:
    n    l      energy [Ha]    energy [eV]    outer radius [A]
    3    2        -0.496514       -13.5108       5.386362
    3    0        -1.464662       -39.8555       3.967934

 
  S                    hydrogenic:
 
  List of hydrogenic basis orbitals: 
    n    l      effective z      eigenvalue [eV]  inner max. [A]     outer max. [A]     outer radius [A]   
    2    1         1.800000       -11.0118           1.168531           1.168531           5.452614
    4    3         7.000000       -41.6672           1.212182           1.212182           5.066981
    4    2         6.200000       -32.6848           0.582121           1.814567           5.386362
    5    4        10.800000       -63.4785           1.227092           1.227092           4.766538
 
 
  Cl                   ion:

  List of free ionic orbitals and eigenvalues:
    n    l      energy [Ha]    energy [eV]
    1    0      -101.807232     -2770.3157
    2    0       -10.290876      -280.0290
    3    0        -1.664625       -45.2967
    2    1        -8.110237      -220.6908
    3    1        -1.183915       -32.2160


  List of ionic basis orbitals and eigenvalues:
    n    l      energy [Ha]    energy [eV]    outer radius [A]
    3    2        -0.529392       -14.4055       5.389057
    3    0        -1.664620       -45.2966       3.780461

 
  Cl                   hydrogenic:
 
  List of hydrogenic basis orbitals: 
    n    l      effective z      eigenvalue [eV]  inner max. [A]     outer max. [A]     outer radius [A]   
    2    1         1.900000       -12.2741           1.113321           1.113321           5.389057
    4    3         7.400000       -46.5653           1.140877           1.140877           4.886961
    5    4        10.400000       -58.8635           1.273568           1.273568           4.886961
    3    2         3.300000       -16.4532           1.439178           1.439178           5.455343
 

  Adding cutoff potential to free-atom effective potential.
  Creating atomic-like basis functions for current effective potential.

  Species Li                  :

  List of atomic basis orbitals and eigenvalues:
    n    l      energy [Ha]    energy [eV]    outer radius [A]
    1    0        -1.901473       -51.7417       4.318785
    2    0        -0.103132        -2.8064       6.464971


  Species P                   :

  List of atomic basis orbitals and eigenvalues:
    n    l      energy [Ha]    energy [eV]    outer radius [A]
    1    0       -76.356288     -2077.7603       0.736837
    2    0        -6.358286      -173.0178       2.532824
    3    0        -0.509419       -13.8620       5.274236
    2    1        -4.573976      -124.4642       2.862183
    3    1        -0.201560        -5.4847       5.404780


  Species S                   :

  List of atomic basis orbitals and eigenvalues:
    n    l      energy [Ha]    energy [eV]    outer radius [A]
    1    0       -88.108280     -2397.5483       0.682391
    2    0        -7.732485      -210.4116       2.317169
    3    0        -0.629532       -17.1304       5.256262
    2    1        -5.750324      -156.4743       2.555240
    3    1        -0.257562        -7.0086       5.386362


  Species Cl                  :

  List of atomic basis orbitals and eigenvalues:
    n    l      energy [Ha]    energy [eV]    outer radius [A]
    1    0      -100.710795     -2740.4802       0.642251
    2    0        -9.222997      -250.9705       2.128190
    3    0        -0.754245       -20.5241       5.194994
    2    1        -7.039872      -191.5647       2.346844
    3    1        -0.316221        -8.6048       5.323577

  Assembling full basis from fixed parts.
  | Species Li :   atomic orbital   1 s accepted.
  | Species Li :    hydro orbital   3 s accepted.
  | Species Li :    hydro orbital   2 s accepted.
  | Species Li :   atomic orbital   2 s accepted.
  | Species Li :    hydro orbital   3 p accepted.
  | Species Li :    hydro orbital   2 p accepted.
  | Species Li :    hydro orbital   2 p accepted.
  | Species Li :    hydro orbital   3 d accepted.
  | Species Li :    hydro orbital   4 d accepted.
  | Species Li :    hydro orbital   4 f accepted.
  | Species P :   atomic orbital   1 s accepted.
  | Species P :   atomic orbital   2 s accepted.
  | Species P :    ionic orbital   3 s accepted.
  | Species P :   atomic orbital   3 s accepted.
  | Species P :   atomic orbital   2 p accepted.
  | Species P :    ionic orbital   3 p accepted.
  | Species P :   atomic orbital   3 p accepted.
  | Species P :    ionic orbital   3 d accepted.
  | Species P :    hydro orbital   4 d accepted.
  | Species P :    hydro orbital   4 f accepted.
  | Species P :    hydro orbital   5 g accepted.
  | Species S :   atomic orbital   1 s accepted.
  | Species S :   atomic orbital   2 s accepted.
  | Species S :    ionic orbital   3 s accepted.
  | Species S :   atomic orbital   3 s accepted.
  | Species S :   atomic orbital   2 p accepted.
  | Species S :   atomic orbital   3 p accepted.
  | Species S :    hydro orbital   2 p accepted.
  | Species S :    ionic orbital   3 d accepted.
  | Species S :    hydro orbital   4 d accepted.
  | Species S :    hydro orbital   4 f accepted.
  | Species S :    hydro orbital   5 g accepted.
  | Species Cl :   atomic orbital   1 s accepted.
  | Species Cl :   atomic orbital   2 s accepted.
  | Species Cl :    ionic orbital   3 s accepted.
  | Species Cl :   atomic orbital   3 s accepted.
  | Species Cl :   atomic orbital   2 p accepted.
  | Species Cl :   atomic orbital   3 p accepted.
  | Species Cl :    hydro orbital   2 p accepted.
  | Species Cl :    ionic orbital   3 d accepted.
  | Species Cl :    hydro orbital   3 d accepted.
  | Species Cl :    hydro orbital   4 f accepted.
  | Species Cl :    hydro orbital   5 g accepted.
 
  Basis size parameters after reduction:
  | Total number of radial functions:       43
  | Total number of basis functions :     3840
 
  Per-task memory consumption for arrays in subroutine allocate_ext:
  |          11.342760MB.
  Testing on-site integration grid accuracy.
  |  Species  Function  <phi|h_atom|phi> (log., in eV)  <phi|h_atom|phi> (rad., in eV)
           1        1                -51.7417001117                -51.7417000312
           1        2                 33.5927188637                 33.5926505054
           1        3                 69.1469416012                 69.1473382425
           1        4                 48.8336153902                 48.8810182289 ***
           1        5                 17.1749490570                 17.1749098864
           1        6                 32.1201183828                 32.1217831653
           1        7                  6.0166019876                  6.0249480535
           1        8                  4.9175332206                  4.9194842525
           1        9                 28.8010599263                 28.8011051086
           1       10                  9.9331480983                  9.9353515081
           2       11              -2077.7602992527              -2077.7602630746
           2       12               -173.0177635265               -173.0177629291
           2       13                -13.5620523038                -13.5620521963
           2       14                  6.3015351439                  6.3015396353
           2       15               -124.4642131574               -124.4642129967
           2       16                 -4.8468074573                 -4.8468065719
           2       17                  5.8113348591                  5.8108493787
           2       18                  5.1218113540                  5.1217878152
           2       19                 22.1386653152                 22.1386624883
           2       20                 19.3047268689                 19.3047231214
           2       21                 30.3235883931                 30.3235836780
           3       22              -2397.5482725833              -2397.5482291499
           3       23               -210.4116306505               -210.4116300246
           3       24                -16.8591546483                -16.8591544436
           3       25                  7.5848976656                  7.5849001027
           3       26               -156.4742745766               -156.4742744285
           3       27                 -7.0089268331                 -7.0089287934
           3       28                  6.8790437028                  6.8789536772
           3       29                  6.0023049431                  6.0023019693
           3       30                 19.5634804122                 19.5634829634
           3       31                 24.6809503130                 24.6809503093
           3       32                 47.5107032033                 47.5107040524
           4       33              -2740.4801671239              -2740.4801157382
           4       34               -250.9705040601               -250.9705032686
           4       35                -20.2716828479                -20.2716826054
           4       36                  9.0161300765                  9.0161279813
           4       37               -191.5646602865               -191.5646600866
           4       38                 -8.6049187754                 -8.6049181478
           4       39                  7.6458046208                  7.6458222053
           4       40                  6.9765726558                  6.9765744583
           4       41                 16.6546700656                 16.6546956458
           4       42                 28.0343243807                 28.0343233726
           4       43                 45.0370063060                 45.0370052039
 * Note: Onsite integrals marked "***" above are less accurate than
 * onsite_accuracy_threshold =    0.03000 eV. Usually, this is harmless.
 * When in doubt, tighten the "radial" and/or "radial_multiplier" flags to check.

  Preparing densities etc. for the partition functions (integrals / Hartree potential).

  Preparations completed.
  max(cpu_time)          :      0.465 s.
  Wall clock time (cpu1) :      0.477 s.
------------------------------------------------------------

------------------------------------------------------------
          Begin self-consistency loop: Initialization.

          Date     :  20220704, Time     :  090024.641
------------------------------------------------------------

  Initializing index lists of integration centers etc. from given atomic structure:
  Mapping all atomic coordinates to central unit cell.

  Initializing the k-points
          Using symmetry for reducing the k-points
  | k-points reduced from:        2 to        2
  | Number of k-points                             :         2
  The eigenvectors in the calculations are REAL.
  | Number of basis functions in the Hamiltonian integrals :     19779
  | Number of basis functions in a single unit cell        :      3840
  | Number of centers in hartree potential         :      2850
  | Number of centers in hartree multipole         :      1903
  | Number of centers in electron density summation:      1563
  | Number of centers in basis integrals           :      1650
  | Number of centers in integrals                 :       677
  | Number of centers in hamiltonian               :      1899
  | Consuming          1 KiB for k_phase.
  | Number of super-cells (origin) [n_cells]                     :         175
  | Number of super-cells (after PM_index) [n_cells]             :          46
  | Number of super-cells in hamiltonian [n_cells_in_hamiltonian]:          46
  | Size of matrix packed + index [n_hamiltonian_matrix_size] :    15654627
  Using simple linear distribution as default method for k-point parallelism.
  * Using 20 tasks for Scalapack Eigenvalue solver.
  Detailed listing of tasks and assigned k-points:
   Task     0 k-point     1 on node108
   Task     1 k-point     1 on node108
   Task     2 k-point     1 on node108
   Task     3 k-point     1 on node108
   Task     4 k-point     1 on node108
   Task     5 k-point     1 on node108
   Task     6 k-point     1 on node108
   Task     7 k-point     1 on node108
   Task     8 k-point     1 on node108
   Task     9 k-point     1 on node108
   Task    10 k-point     2 on node108
   Task    11 k-point     2 on node108
   Task    12 k-point     2 on node108
   Task    13 k-point     2 on node108
   Task    14 k-point     2 on node108
   Task    15 k-point     2 on node108
   Task    16 k-point     2 on node108
   Task    17 k-point     2 on node108
   Task    18 k-point     2 on node108
   Task    19 k-point     2 on node108
  K-point:     1 Tasks:    10 split into      5 X      2 BLACS grid
  Calculating block size based on n_basis =         3840 max_nprow =            5 max_npcol =            2
  ScaLAPACK block size set to:           16
  Allocating       11.796 MB for ovlp
  Allocating       11.796 MB for ham
  Allocating       11.796 MB for eigenvec
  Required Scalapack workspace - INTEGER:            1 REAL:             1
  Partitioning the integration grid into batches with parallel hashing+maxmin method.
  | Number of batches:    28050
  | Maximal batch size:     136
  | Minimal batch size:      52
  | Average batch size:      83.140
  | Standard deviation of batch sizes:      22.928

  Integration load balanced across    20 MPI tasks.
  Work distribution over tasks is as follows:
  Task     0 has     116551 integration points.
  Task     1 has     116623 integration points.
  Task     2 has     116633 integration points.
  Task     3 has     116587 integration points.
  Task     4 has     116622 integration points.
  Task     5 has     116551 integration points.
  Task     6 has     116615 integration points.
  Task     7 has     116618 integration points.
  Task     8 has     116617 integration points.
  Task     9 has     116638 integration points.
  Task    10 has     116557 integration points.
  Task    11 has     116616 integration points.
  Task    12 has     116560 integration points.
  Task    13 has     116633 integration points.
  Task    14 has     116624 integration points.
  Task    15 has     116637 integration points.
  Task    16 has     116546 integration points.
  Task    17 has     116613 integration points.
  Task    18 has     116587 integration points.
  Task    19 has     116652 integration points.
  Initializing partition tables, free-atom densities, potentials, etc. across the integration grid (initialize_grid_storage).
  | initialize_grid_storage: Actual outermost partition radius vs. multipole_radius_free
  | (-- VB: in principle, multipole_radius_free should be larger, hence this output)
  | Species        1: Confinement radius =              7.000000000000000 AA, multipole_radius_free =              7.042572113910259 AA.
  | Species        1: outer_partition_radius set to              7.042572113910259 AA .
  | Species        2: Confinement radius =              6.000000000000000 AA, multipole_radius_free =              6.033387558927091 AA.
  | Species        2: outer_partition_radius set to              6.033387558927091 AA .
  | Species        3: Confinement radius =              6.000000000000000 AA, multipole_radius_free =              6.012827091137924 AA.
  | Species        3: outer_partition_radius set to              6.012827091137924 AA .
  | Species        4: Confinement radius =              6.000000000000000 AA, multipole_radius_free =              6.015836048499353 AA.
  | Species        4: outer_partition_radius set to              6.015836048499353 AA .
  | Original list of interatomic distances with        1650 x       1650 entries is created.
  | Net number of integration points:  2332080
  | of which are non-zero points    :  1890063
  | Numerical average free-atom electrostatic potential    :     -9.84052560 eV
  Renormalizing the initial density to the exact electron count on the 3D integration grid.
  | Initial density: Formal number of electrons (from input files) :    1344.0000000000
  | Integrated number of electrons on 3D grid     :    1344.0000991953
[...]
  | Total energy evaluation                    :        0.003 s           0.006 s

  Partial memory accounting:
  | Current value for overall tracked memory usage on task 0  :         231.653 MB
  | Peak value for overall tracked memory usage on task 0     :         482.127 MB after allocating temp_ham_ovlp
  | Largest tracked array allocation on task 0 so far         :         125.237 MB  when allocating overlap_matrix
  Note:  These values currently only include a subset of arrays which are explicitly tracked.
  The "true" memory usage will be greater.
------------------------------------------------------------
  |------------------------------------------
  | Final ELSI Output
  |------------------------------------------
  | Number of basis functions :         3840
  | Number of electrons       :       1344.0
  | Number of spins           :            1
  | Number of k-points        :            2
  | Number of states          :          948
  | Solver                    :         ELPA
  | Parallel mode             :   MULTI_PROC
  | Matrix format             :  BLACS_DENSE
  | Matrix sparsity           :        0.169
  |------------------------------------------
  | ELSI Project (c)  elsi-interchange.org
  |------------------------------------------
  Removing unitary transformations (pure translations, rotations) from forces on atoms.
  Atomic forces before filtering:
  | Net force on center of mass :   0.712865E-03 -0.151877E-02  0.366569E-02 eV/A
  Atomic forces after filtering:
  | Net force on center of mass :  -0.153875E-14  0.124884E-14  0.142725E-14 eV/A

  Energy and forces in a compact form:
  | Total energy uncorrected      :         -0.859137999250189E+06 eV
  | Total energy corrected        :         -0.859137999250189E+06 eV  <-- do not rely on this value for anything but (periodic) metals
  | Electronic free energy        :         -0.859137999250189E+06 eV
  Total atomic forces (unitary forces cleaned) [eV/Ang]:
  |   1         -0.214980060986769E+00         -0.149628113114605E-01          0.418012640537849E-01
  |   2          0.699813299318356E-01         -0.840105314087747E-01          0.372823730733979E-01
  |   3          0.164124070040614E-01          0.893425106680677E-01         -0.402124902400582E-01
  |   4         -0.959958772886216E-01         -0.663237775428108E-01          0.100078839453482E+00
  |   5          0.674218525781715E-01         -0.274379640024897E+00          0.876463488222767E-01
  |   6          0.235663043860726E+00         -0.325833147607184E+00          0.402532802833479E+00
  |   7         -0.237032960641233E+00          0.213747097094336E+00         -0.381940187108532E+00
  |   8          0.113839386980527E+00         -0.595093990783831E-01          0.632803326749255E-01
  |   9         -0.920210170531135E-01         -0.453799395993287E-01         -0.499647135237329E-01
  |  10          0.661640288613242E-01         -0.142952160915272E+00          0.249524196476413E-01
  |  11         -0.660697793517006E-01         -0.274033164232413E-01         -0.298769487787123E+00
  |  12          0.915547903891104E-01          0.323277521713877E-01          0.169300461783586E+00
  |  13          0.277006968988239E-01         -0.876634132000990E-02          0.332719846933940E-01
  |  14         -0.453945074004688E-02          0.313910190726151E-01          0.798515560564596E-01
  |  15          0.713531210616861E-01         -0.421586636882132E+00         -0.323262027932199E-02
  |  16         -0.174742730235050E+00          0.292180265343025E+00         -0.804452602289564E-01
  |  17          0.348965042055656E-01         -0.377546052044219E-01         -0.425990126980144E-01
  |  18          0.136881797879868E+00         -0.990181297882821E-01          0.409920797463409E+00
  |  19         -0.684805103820013E-02          0.283771518353141E-01         -0.285775658583176E-01
  |  20          0.292815609028152E+00         -0.230214260886176E+00          0.183627625170689E+00
  |  21         -0.398655607634947E-01         -0.115098991932952E+00         -0.389049989451890E-01
  |  22         -0.365139241728149E+00          0.512350512219069E-01         -0.970477724550887E-01
  |  23         -0.248446860210717E-01          0.544710074139941E-01         -0.165560338928462E+00
  |  24          0.936807830898152E-01          0.767287787211775E-01          0.145245669604857E+00
  |  25         -0.452303268640867E+00         -0.173836456022814E+00         -0.902831809211307E+00
  |  26         -0.416724291463648E+00          0.405723946870737E+00          0.583408084618784E+00
  |  27          0.925566245944316E+00          0.848624789855986E+00         -0.116338564807424E+01
  |  28         -0.101515323367245E+01          0.135304029473275E+01          0.221903869917466E+00
  |  29         -0.371186577331514E+00         -0.430440628079642E+00         -0.813982933590914E+00
  |  30         -0.107480745186457E+01         -0.608223614788002E+00          0.107972751148091E+00
  |  31          0.123201633981313E+01          0.587939716003852E+00         -0.112458726265805E+01
  |  32         -0.416814524768754E+00          0.212592086707585E-01          0.541162120960742E+00
  |  33         -0.699037909686779E+00         -0.762120665886294E+00         -0.674144086556925E-01
  |  34         -0.166685823555333E-01          0.291392076896597E+00         -0.456347034657956E-01
  |  35         -0.508947815093220E+00          0.817181615809113E+00         -0.198066505464354E+00
  |  36          0.125231970838787E-01          0.114515760568271E+01          0.667801700272923E+00
  |  37         -0.331249173990056E+00         -0.241035624812259E+00          0.778217063544528E-01
  |  38          0.379720776531138E+00          0.220957339932676E+00         -0.456129529936945E+00
  |  39          0.770312820199072E+00         -0.114719339904003E+01         -0.149344221164268E+00
  |  40          0.336560292027355E+00         -0.619998118090750E+00         -0.390851316747741E+00
  |  41          0.263987409034393E+00          0.104013961374714E+01         -0.103288225492520E+01
  |  42         -0.442551480188119E+00          0.311972149623902E+00         -0.669986242485557E+00
  |  43         -0.151830101247057E-01          0.226110113431098E+00         -0.709783990276894E-01
  |  44          0.163728745835911E+01         -0.772715015388142E+00          0.654023136245095E+00
  |  45          0.144586890345806E+00          0.110311404889267E+00          0.859199740736470E+00
  |  46         -0.188949547022016E+01          0.611994151109597E+00         -0.102421944525741E+01
  |  47          0.270640954243432E+00         -0.536768726406511E-01          0.389625453154657E+00
  |  48          0.174427140731016E+00          0.237633675227822E+00         -0.125703687487648E+01
  |  49          0.852735702590063E-03         -0.601943256223000E+00          0.122054721518680E+01
  |  50          0.722163560759255E-01         -0.856126210360610E+00          0.101974281326609E+01
  |  51          0.170598028714786E+00          0.141446714059658E+00         -0.485809783937114E-02
  |  52         -0.348991375690068E+00          0.487675870364680E+00         -0.353683078991985E+00
  |  53         -0.460333119866857E+00          0.334945876181444E+00         -0.717240836882662E+00
  |  54          0.321690104870913E+00          0.730655792882958E+00          0.932669215111153E+00
  |  55         -0.870764703551285E+00          0.393722577360888E+00         -0.434358364197132E-01
  |  56          0.798411293591981E+00         -0.828030298718392E+00         -0.118703368274682E-02
  |  57          0.134838537385163E+00         -0.162564723265390E+01          0.496879682572690E+00
  |  58          0.174596832387976E+00         -0.123806818044467E+00          0.431651149709747E+00
  |  59          0.178623730066556E+00         -0.809228957641086E+00         -0.134209042638380E+00
  |  60         -0.111985742098331E+00          0.149201346565183E+01         -0.695852231956392E+00
  |  61         -0.463595633575044E-01         -0.402454520123661E-01          0.188856042651026E+00
  |  62          0.200551296730809E+01         -0.205763534312446E+01          0.604363219472421E+00
  |  63         -0.146857132380422E+00          0.226636065852149E+00          0.555668834450721E+00
  |  64         -0.200032611662377E+01          0.188079099068628E+01         -0.538051005352761E+00
  |  65          0.617038376609528E-01          0.198695657154097E+00          0.623263857087105E+00
  |  66         -0.404277694683519E+00          0.475450924045502E+00         -0.201602289602916E+01
  |  67          0.920970989039367E-01         -0.259995001937536E+00          0.424954707063299E+00
  |  68          0.370976138771568E+00         -0.728739918187215E+00          0.113898978382726E+01
  |  69         -0.918489918567258E+00         -0.843437868064292E+00         -0.174411832823803E+00
  |  70          0.808025794206096E+00          0.696989327869172E+00          0.584528042015726E+00
  |  71         -0.279106015364546E+00          0.130989883584885E+01         -0.851230005170732E+00
  |  72          0.278634884318356E+00          0.129131627257661E+01          0.861672359647742E+00
  |  73         -0.118487051109161E+00         -0.586392822276083E+00          0.193439468513223E+00
  |  74          0.353838613554504E+00         -0.148629316753961E+00         -0.160286982745424E+00
  |  75          0.198866271801349E+00         -0.654449667285841E+00         -0.261741738770104E+00
  |  76          0.136256959222894E-01         -0.573111252983004E+00          0.252163675185917E-01
  |  77          0.461143659072671E+00          0.100371259924334E+01         -0.685738172946402E+00
  |  78         -0.279754131765848E+00          0.315220964507546E+00         -0.468995136202077E+00
  |  79         -0.266792167450844E+00          0.170845196952923E-01         -0.125559887573251E+00
  |  80          0.194611501447584E+00         -0.221644583853014E+00          0.397461727804225E+00
  |  81          0.232739884077868E+00         -0.889718239767713E-01          0.753437589920285E-01
  |  82          0.180856334491281E+00         -0.158785804023932E+00          0.109133994337189E-01
  |  83         -0.110658479690169E-01         -0.165661852341985E+00          0.362823073411017E-01
  |  84          0.590446756224331E-01          0.480525359388169E+00         -0.142161818447179E+01
  |  85         -0.261153701025374E+00         -0.599842145776837E+00          0.102747464488798E+01
  |  86         -0.613389205190249E-01         -0.963940452098907E+00          0.108550086656281E+01
  |  87         -0.361230172069947E+00         -0.226056485097348E+00         -0.703365959235229E-01
  |  88         -0.316841091088635E+00          0.234087458412355E+00         -0.350523292702561E+00
  |  89         -0.504599603479986E+00          0.914977525328332E+00         -0.640491938339943E+00
  |  90          0.161177752901905E+00          0.101160460064506E+01          0.624859300853480E+00
  |  91         -0.362309019203058E+00         -0.136903206270538E+00          0.151748206515746E+00
  |  92          0.183472680575105E+01         -0.153826212738213E+01          0.482124814648676E+00
  |  93         -0.284595304759972E-01         -0.144826760173824E+01          0.787904531751978E+00
  |  94         -0.243839763119758E-02         -0.113833798013987E+00          0.508419373637744E-01
  |  95          0.743857504284276E+00          0.167448526526569E+01         -0.114451664095278E+01
  |  96         -0.959162566267027E+00         -0.834902886613622E-01         -0.494464582471262E+00
  |  97          0.147753798335602E+00          0.217287544381096E+00          0.242512866533134E+00
  |  98          0.614044547083220E+00         -0.253958921408644E+00         -0.307381927239585E+00
  |  99          0.174400987144306E+00         -0.803743316498550E-02          0.439537950218308E+00
  | 100         -0.322687589005357E+00          0.262027770896005E+00          0.145884307934838E+00
  | 101          0.543547677033799E+00          0.329822313152576E-01         -0.258249124693734E-01
  | 102          0.162699174718993E+00          0.520386963863989E+00         -0.920245821589494E+00
  | 103         -0.479064359266068E+00         -0.104533170136075E+01          0.152509020589053E+01
  | 104         -0.116630363532420E+00         -0.891017783392538E+00          0.934859092213757E+00

  ------------------------------------ 
  Start decomposition of the XC Energy 
  ------------------------------------ 
  X and C from original XC functional choice 
  Hartree-Fock Energy :          0.000000000 Ha              0.000000000 eV
  X Energy            :      -2018.905508165 Ha         -54937.214051837 eV
  C Energy            :        -52.148063377 Ha          -1419.021003492 eV
  Total XC Energy     :      -2071.053571542 Ha         -56356.235055329 eV
  ------------------------------------ 
  LDA X and C from self-consistent density 
  X Energy LDA        :      -1871.025670036 Ha         -50913.198916709 eV
  C Energy LDA        :       -103.268269730 Ha          -2810.072594267 eV
  ------------------------------------ 
  End decomposition of the XC Energy 
  ------------------------------------ 

------------------------------------------------------------

------------------------------------------------------------------------------
  Final output of selected total energy values:

  The following output summarizes some interesting total energy values
  at the end of a run (AFTER all relaxation, molecular dynamics, etc.).

  | Total energy of the DFT / Hartree-Fock s.c.f. calculation      :        -859137.999250189 eV
  | Final zero-broadening corrected energy (caution - metals only) :        -859137.999250189 eV
  | For reference only, the value of 1 Hartree used in FHI-aims is :             27.211384500 eV

  Before relying on these values, please be sure to understand exactly which
  total energy value is referred to by a given number. Different objects may
  all carry the same name 'total energy'. Definitions:

  Total energy of the DFT / Hartree-Fock s.c.f. calculation:
  | Note that this energy does not include ANY quantities calculated after the
  | s.c.f. cycle, in particular not ANY RPA, MP2, etc. many-body perturbation terms.

  Final zero-broadening corrected energy:
  | For metallic systems only, a broadening of the occupation numbers at the Fermi
  | level can be extrapolated back to zero broadening by an electron-gas inspired
  | formula. For all systems that are not real metals, this value can be
  | meaningless and should be avoided.

------------------------------------------------------------------------------
  Methods described in the following list of references were used in this FHI-aims run.
  If you publish the results, please make sure to cite these reference if they apply.
  FHI-aims is an academic code, and for our developers (often, Ph.D. students
  and postdocs), scientific credit in the community is essential.
  Thank you for helping us!

  For any use of FHI-aims, please cite:

    Volker Blum, Ralf Gehrke, Felix Hanke, Paula Havu, Ville Havu,
    Xinguo Ren, Karsten Reuter, and Matthias Scheffler
    'Ab initio molecular simulations with numeric atom-centered orbitals'
    Computer Physics Communications 180, 2175-2196 (2009)
    http://dx.doi.org/10.1016/j.cpc.2009.06.022


  The provided symmetry information was generated with SPGlib:

    Atsushi Togo, Yusuke Seto, Dimitar Pashov
    SPGlib 1.7.3 obtained from http://spglib.sourceforge.net
    Copyright (C) 2008 Atsushi Togo


  The scalable eigensolver library ELPA was used in your run.
  ELPA is essential especially for large systems on hundreds or thousands of CPUs.
  For ELPA, please cite:

    Andreas Marek, Volker Blum, Rainer Johanni, Ville Havu, Bruno Lang,
    Thomas Auckenthaler, Alexander Heinecke, Hans-Joachim Bungartz, and Hermann Lederer,
    'The ELPA Library - Scalable Parallel Eigenvalue Solutions
    for Electronic Structure Theory and Computational Science'
    The Journal of Physics: Condensed Matter 26, 213201 (2014).
    http://dx.doi.org/10.1088/0953-8984/26/21/213201


  The ELSI infrastructure was used in your run to solve the Kohn-Sham electronic structure.
  Please check out http://elsi-interchange.org to learn more.
  If scalability is important for your project, please acknowledge ELSI by citing:

    V. W-z. Yu, F. Corsetti, A. Garcia, W. P. Huhn, M. Jacquelin, W. Jia,
    B. Lange, L. Lin, J. Lu, W. Mi, A. Seifitokaldani, A. Vazquez-Mayagoitia,
    C. Yang, H. Yang, and V. Blum
    'ELSI: A unified software interface for Kohn-Sham electronic structure solvers'
    Computer Physics Communications 222, 267-285 (2018).
    http://dx.doi.org/10.1016/j.cpc.2017.09.007


  For the real-space grid partitioning and parallelization used in this calculation, please cite:

    Ville Havu, Volker Blum, Paula Havu, and Matthias Scheffler,
    'Efficient O(N) integration for all-electron electronic structure calculation'
    'using numerically tabulated basis functions'
    Journal of Computational Physics 228, 8367-8379 (2009).
    http://dx.doi.org/10.1016/j.jcp.2009.08.008

  Of course, there are many other important community references, e.g., those cited in the
  above references. Our list is limited to references that describe implementations in the
  FHI-aims code. The reason is purely practical (length of this list) - please credit others as well.

------------------------------------------------------------
          Leaving FHI-aims.
          Date     :  20220704, Time     :  095642.434

          Computational steps:
          | Number of self-consistency cycles          :           22
          | Number of SCF (re)initializations          :            1

          Detailed time accounting                     :  max(cpu_time)    wall_clock(cpu1)
          | Total time                                 :     3377.877 s        3378.387 s
          | Preparation time                           :        0.465 s           0.477 s
          | Boundary condition initalization           :        0.865 s           0.865 s
          | Grid partitioning                          :        4.020 s           4.020 s
          | Preloading free-atom quantities on grid    :        0.035 s           0.035 s
          | Free-atom superposition energy             :        1.553 s           1.553 s
          | Total time for integrations                :      717.825 s         717.850 s
          | Total time for solution of K.-S. equations :       57.348 s          57.352 s
          | Total time for density & force components  :     1931.412 s        1931.442 s
          | Total time for mixing & preconditioning    :      241.121 s         241.348 s
          | Total time for Hartree multipole update    :        0.630 s           0.632 s
          | Total time for Hartree multipole sum       :      412.013 s         412.056 s
          | Total time for total energy evaluation     :        0.012 s           0.032 s

          Partial memory accounting:
          | Residual value for overall tracked memory usage across tasks :           0.000 MB (should be 0.000 MB)
          | Peak values for overall tracked memory usage (after allocating temp_ham_ovlp):
          |   Minimum:      482.127 MB (on task  1)
          |   Maximum:      482.127 MB (on task  1)
          |   Average:      482.127 MB
          | Largest tracked array allocation (overlap_matrix):
          |   Minimum:      125.237 MB (on task  1)
          |   Maximum:      125.237 MB (on task  1)
          |   Average:      125.237 MB
          Note:  These values currently only include a subset of arrays which are explicitly tracked.
          The "true" memory usage will be greater.

          Have a nice day.
------------------------------------------------------------
