  MPI-parallelism will be employed.
------------------------------------------------------------
          Invoking FHI-aims ...
          Version 171221_1
          Compiled on 2020/09/23 at 19:46:43 on host login.service.

          When using FHI-aims, please cite the following reference:

          Volker Blum, Ralf Gehrke, Felix Hanke, Paula Havu,
          Ville Havu, Xinguo Ren, Karsten Reuter, and Matthias Scheffler,
          'Ab Initio Molecular Simulations with Numeric Atom-Centered Orbitals',
          Computer Physics Communications 180, 2175-2196 (2009)

          For any questions about FHI-aims, please visit the aimsclub website
          with its forums and wiki. Contributions to both the forums and the
          wiki are warmly encouraged - they are for you, and everyone is welcome there.

------------------------------------------------------------



  Date     :  20220704, Time     :  050356.798
  Time zero on CPU 1             :   0.110297000000000E+00  s.
  Internal wall clock time zero  :           426143036.798  s.

  FHI-aims created a unique identifier for this run for later identification
  aims_uuid : 450D3820-CE31-4FED-A03C-C1132F9A0689

  Using       20 parallel tasks.
  Task        0 on host node047 reporting.
  Task        1 on host node047 reporting.
  Task        2 on host node047 reporting.
  Task        3 on host node047 reporting.
  Task        4 on host node047 reporting.
  Task        5 on host node047 reporting.
  Task        6 on host node047 reporting.
  Task        7 on host node047 reporting.
  Task        8 on host node047 reporting.
  Task        9 on host node047 reporting.
  Task       10 on host node047 reporting.
  Task       11 on host node047 reporting.
  Task       12 on host node047 reporting.
  Task       13 on host node047 reporting.
  Task       14 on host node047 reporting.
  Task       15 on host node047 reporting.
  Task       16 on host node047 reporting.
  Task       17 on host node047 reporting.
  Task       18 on host node047 reporting.
  Task       19 on host node047 reporting.

  Performing system and environment tests:
  *** Environment variable OMP_NUM_THREADS is not set
  *** For performance reasons you might want to set it to 1
  | Maximum stacksize for task 0: unlimited
  | Maximum stacksize for task 1: unlimited
  | Maximum stacksize for task 2: unlimited
  | Maximum stacksize for task 3: unlimited
  | Maximum stacksize for task 4: unlimited
  | Maximum stacksize for task 5: unlimited
  | Maximum stacksize for task 6: unlimited
  | Maximum stacksize for task 7: unlimited
  | Maximum stacksize for task 8: unlimited
  | Maximum stacksize for task 9: unlimited
  | Maximum stacksize for task 10: unlimited
  | Maximum stacksize for task 11: unlimited
  | Maximum stacksize for task 12: unlimited
  | Maximum stacksize for task 13: unlimited
  | Maximum stacksize for task 14: unlimited
  | Maximum stacksize for task 15: unlimited
  | Maximum stacksize for task 16: unlimited
  | Maximum stacksize for task 17: unlimited
  | Maximum stacksize for task 18: unlimited
  | Maximum stacksize for task 19: unlimited
  | Current stacksize for task 0: unlimited
  | Current stacksize for task 1: unlimited
  | Current stacksize for task 2: unlimited
  | Current stacksize for task 3: unlimited
  | Current stacksize for task 4: unlimited
  | Current stacksize for task 5: unlimited
  | Current stacksize for task 6: unlimited
  | Current stacksize for task 7: unlimited
  | Current stacksize for task 8: unlimited
  | Current stacksize for task 9: unlimited
  | Current stacksize for task 10: unlimited
  | Current stacksize for task 11: unlimited
  | Current stacksize for task 12: unlimited
  | Current stacksize for task 13: unlimited
  | Current stacksize for task 14: unlimited
  | Current stacksize for task 15: unlimited
  | Current stacksize for task 16: unlimited
  | Current stacksize for task 17: unlimited
  | Current stacksize for task 18: unlimited
  | Current stacksize for task 19: unlimited
  | Checking for scalapack...
  | Testing pdtran()...
  | All pdtran() tests passed.

  Obtaining array dimensions for all initial allocations:
  
  -----------------------------------------------------------------------
  Parsing control.in (first pass over file, find array dimensions only).
  The contents of control.in will be repeated verbatim below
  unless switched off by setting 'verbatim_writeout .false.' .
  in the first line of control.in .
  -----------------------------------------------------------------------
  
  #===============================================================================
  # FHI-aims file: ./control.in
  # Created using the Atomic Simulation Environment (ASE)
  # Wed Mar 24 12:41:28 2021
  #===============================================================================
  xc                                 pbe
  sc_accuracy_etot                   1e-06
  sc_accuracy_eev                    0.001
  sc_accuracy_rho                    1e-06
  sc_accuracy_forces                 0.0001
  friction_temperature               300  # default 300
  
    k_grid                           1  2  2
  
  
  
  ################################################################################
  #
  #  FHI-aims code project
  # Volker Blum, Fritz Haber Institute Berlin, 2009
  #
  #  Suggested "tight" defaults for Li atom (to be pasted into control.in file)
  #
  #  2016/03/22: Increased cutoff radius to 5.0 AA (Xinguo Ren, Aug 15, 2015)
  #
  ################################################################################
    species        Li
  #     global species definitions
      nucleus             3
      mass                6.941
  #
      l_hartree           6
  #
      cut_pot             5.0  2.0  1.0
      basis_dep_cutoff    1e-4
  #
      radial_base         29 7.0
      radial_multiplier   2
      angular_grids       specified
        division   0.4484  110
        division   0.5659  194
        division   0.6315  302
        division   0.6662  434
  #      division   0.8186  590
  #      division   0.9037  770
  #      division   6.2760  974
  #      outer_grid   974
        outer_grid  434
  ################################################################################
  #
  #  Definition of "minimal" basis
  #
  ################################################################################
  #     valence basis states
      valence      2  s   1.
  #     ion occupancy
      ion_occ      1  s   2.
  ################################################################################
  #
  #  Suggested additional basis functions. For production calculations,
  #  uncomment them one after another (the most important basis functions are
  #  listed first).
  #
  #  Constructed for dimers: 1.80 A, 2.25 A, 2.75 A, 3.50 A, 4.50 A
  #
  ################################################################################
  #  "First tier" - improvements: -189.23 meV to -6.35 meV
       hydro 2 p 1.6
       hydro 2 s 2
       hydro 3 d 2.6
  #  "Second tier" - improvements: -4.69 meV to -0.41 meV
       hydro 3 p 4.6
       hydro 2 p 1.8
       hydro 3 s 6.2
       hydro 4 d 4.7
       hydro 4 f 4.1
  #  "Third tier" - improvements: -0.20 meV to -0.15 meV
  #     hydro 4 d 0.95
  #     hydro 3 p 6.2
  #     hydro 3 s 1.7
  #  Further functions, listed for completeness
  #     VB: The following functions are only listed for completeness; test very
  #         carefully before any kind of production use. From the point of view
  #         of the basis construction, their main role is to fill up space,
  #         and they are solely determined by the location of the cutoff potential.
  #     hydro 3 p 0.1  # -0.15 meV
  #     hydro 4 d 5    # -0.12 meV
  #     hydro 4 f 0.1  # -0.14 meV
  #     hydro 5 g 0.1  # -0.06 meV
  
  
  ################################################################################
  #
  # For methods that use the localized form of the "resolution of identity" for
  # the two-electron Coulomb operator (RI_method LVL), particularly Hartree-Fock and
  # hybrid density functional calculations, the highest accuracy can be obtained by
  # uncommenting the line beginning with "for_aux"  below, thus adding an extra g radial
  # function to the construction of the product basis set for the expansion.
  # See Ref. New J. Phys. 17, 093020 (2015) for more information, particularly Figs. 1 and 6.
  #
  ################################################################################
  #
  # for_aux hydro 5 g 6.0
  ################################################################################
  #
  #  FHI-aims code project
  # Volker Blum, Fritz Haber Institute Berlin, 2010
  #
  #  Suggested "tight" defaults for P atom (to be pasted into control.in file)
  #
  #  Revised Jan 04, 2011, following tests (SiC) done by Lydia Nemec:
  #     d function of tier 2 now enabled by default.
  #
  ################################################################################
    species        P
  #     global species definitions
      nucleus             15
      mass                30.973762
  #
      l_hartree           6
  #
      cut_pot             4.0          2.0  1.0
      basis_dep_cutoff    1e-4
  #
      radial_base         43 7.0
      radial_multiplier   2
      angular_grids       specified
        division   0.2995   50
        division   0.5998  110
        division   0.9240  194
        division   1.0921  302
        division   1.2863  434
  #      division   1.3165  590
  #      division   1.4113  770
  #      division   1.5128  974
  #      division   2.4980 1202
        outer_grid  434
  ################################################################################
  #
  #  Definition of "minimal" basis
  #
  ################################################################################
  #     valence basis states
      valence      3  s   2.
      valence      3  p   3.
  #     ion occupancy
      ion_occ      3  s   1.
      ion_occ      3  p   2.
  ################################################################################
  #
  #  Suggested additional basis functions. For production calculations,
  #  uncomment them one after another (the most important basis functions are
  #  listed first).
  #
  #  Constructed for dimers: 1.625 A, 1.875 A, 2.5 A, 3.25 A, 4.0 A
  #
  ################################################################################
  #  "First tier" - improvements: -726.20 meV to -35.91 meV
       ionic 3 d auto
       ionic 3 p auto
       hydro 4 f 6.2
       hydro 5 g 8.6
       ionic 3 s auto
  #  "Second tier" - improvements: -16.02 meV to -1.71 meV
       hydro 4 d 6.2
  #     hydro 4 p 9.2
  #     hydro 5 f 9.8
  #     hydro 1 s 0.7
  #     hydro 5 g 13.2
  #  "Third tier" - improvements: -1.82 meV to -0.20 meV
  #     hydro 3 p 2.5
  #     hydro 4 d 6.4
  #     hydro 5 f 11.2
  #     hydro 2 s 1.5
  #  "Fourth tier" - improvements: -0.91 meV to -0.17 meV
  #     hydro 3 d 16.8
  #     hydro 5 g 18
  #     hydro 4 p 4.5
  #     hydro 3 s 2.1
  #  Further basis functions that fell out of the optimization - < -0.09 meV
  #     hydro 4 p 10.4
  #     hydro 4 d 17.6
  #     hydro 4 s 11.2
  ################################################################################
  #
  # For methods that use the localized form of the "resolution of identity" for
  # the two-electron Coulomb operator (RI_method LVL), particularly Hartree-Fock and
  # hybrid density functional calculations, the highest accuracy can be obtained by
  # uncommenting the line beginning with "for_aux"  below, thus adding an extra g radial
  # function to the construction of the product basis set for the expansion.
  # See Ref. New J. Phys. 17, 093020 (2015) for more information, particularly Figs. 1 and 6.
  #
  ################################################################################
  #
  # for_aux hydro 5 g 6.0
  ################################################################################
  #
  #  FHI-aims code project
  # Volker Blum, Fritz Haber Institute Berlin, 2009
  #
  #  Suggested "tight" defaults for S atom (to be pasted into control.in file)
  #
  #  Revised Jan 04, 2011, following tests (SiC) done by Lydia Nemec:
  #     d and g functions of tier 2 now enabled by default.
  #
  ################################################################################
    species        S
  #     global species definitions
      nucleus             16
      mass                32.065
  #
      l_hartree           6
  #
      cut_pot             4.0          2.0  1.0
      basis_dep_cutoff    1e-4
  #
      radial_base         44 7.0
      radial_multiplier   2
      angular_grids       specified
        division   0.4665  110
        division   0.5810  194
        division   0.7139  302
        division   0.8274  434
  #      division   0.9105  590
  #      division   1.0975  770
  #      division   1.2028  974
  #      outer_grid  974
        outer_grid  434
  ################################################################################
  #
  #  Definition of "minimal" basis
  #
  ################################################################################
  #     valence basis states
      valence      3  s   2.
      valence      3  p   4.
  #     ion occupancy
      ion_occ      3  s   1.
      ion_occ      3  p   3.
  ################################################################################
  #
  #  Suggested additional basis functions. For production calculations,
  #  uncomment them one after another (the most important basis functions are
  #  listed first).
  #
  #  Constructed for dimers: 1.6 A, 1.9 A, 2.5 A, 3.25 A, 4.0 A
  #
  ################################################################################
  #  "First tier" - improvements: -652.81 meV to -45.53 meV
       ionic 3 d auto
       hydro 2 p 1.8
       hydro 4 f 7
       ionic 3 s auto
  #  "Second tier" - improvements: -30.20 meV to -1.74 meV
       hydro 4 d 6.2
       hydro 5 g 10.8
  #     hydro 4 p 4.9
  #     hydro 5 f 10
  #     hydro 1 s 0.8
  #  "Third tier" - improvements: -1.04 meV to -0.20 meV
  #     hydro 3 d 3.9
  #     hydro 3 d 2.7
  #     hydro 5 g 12
  #     hydro 4 p 10.4
  #     hydro 5 f 12.4
  #     hydro 2 s 1.9
  #  "Fourth tier" - improvements: -0.35 meV to -0.06 meV
  #     hydro 4 d 10.4
  #     hydro 4 p 7.2
  #     hydro 4 d 10
  #     hydro 5 g 19.2
  #     hydro 4 s 12
  
  ################################################################################
  #
  # For methods that use the localized form of the "resolution of identity" for
  # the two-electron Coulomb operator (RI_method LVL), particularly Hartree-Fock and
  # hybrid density functional calculations, the highest accuracy can be obtained by
  # uncommenting the line beginning with "for_aux"  below, thus adding an extra g radial
  # function to the construction of the product basis set for the expansion.
  # See Ref. New J. Phys. 17, 093020 (2015) for more information, particularly Figs. 1 and 6.
  #
  ################################################################################
  #
  # for_aux hydro 5 g 6.0
  ################################################################################
  #
  #  FHI-aims code project
  # Volker Blum, Fritz Haber Institute Berlin, 2009
  #
  #  Suggested "tight" defaults for Cl atom (to be pasted into control.in file)
  #
  #  Revised Jan 04, 2011, following tests (SiC) done by Lydia Nemec:
  #     d function of tier 2 now enabled by default.
  #
  ################################################################################
    species        Cl
  #     global species definitions
      nucleus             17
      mass                35.453
  #
      l_hartree           6
  #
      cut_pot             4.0          2.0  1.0
      basis_dep_cutoff    1e-4
  #
      radial_base         45 7.0
      radial_multiplier   2
      angular_grids       specified
        division   0.4412  110
        division   0.5489  194
        division   0.6734  302
        division   0.7794  434
  #      division   0.9402  590
  #      division   1.0779  770
  #      division   1.1792  974
  #      outer_grid  974
        outer_grid  434
  ################################################################################
  #
  #  Definition of "minimal" basis
  #
  ################################################################################
  #     valence basis states
      valence      3  s   2.
      valence      3  p   5.
  #     ion occupancy
      ion_occ      3  s   1.
      ion_occ      3  p   4.
  ################################################################################
  #
  #  Suggested additional basis functions. For production calculations,
  #  uncomment them one after another (the most important basis functions are
  #  listed first).
  #
  #  Constructed for dimers: 1.65 A, 2.0 A, 2.5 A, 3.25 A, 4.0 A
  #
  ################################################################################
  #  "First tier" - improvements: -429.57 meV to -15.03 meV
       ionic 3 d auto
       hydro 2 p 1.9
       hydro 4 f 7.4
       ionic 3 s auto
       hydro 5 g 10.4
  #  "Second tier" - improvements: -7.84 meV to -0.48 meV
       hydro 3 d 3.3
  #     hydro 5 f 9.8
  #     hydro 1 s 0.75
  #     hydro 5 g 11.2
  #     hydro 4 p 10.4
  #  "Third tier" - improvements: -1.00 meV to -0.12 meV
  #     hydro 4 d 12.8
  #     hydro 4 f 4.6
  #     hydro 4 d 10.8
  #     hydro 2 s 1.8
  #     hydro 3 p 3
  #  Further functions that fell out - improvements: -0.10 meV and below
  #     hydro 5 f 14.4
  #     hydro 4 s 12.8
  #     hydro 3 d 11.6
  #     hydro 4 s 4.1
  ################################################################################
  #
  # For methods that use the localized form of the "resolution of identity" for
  # the two-electron Coulomb operator (RI_method LVL), particularly Hartree-Fock and
  # hybrid density functional calculations, the highest accuracy can be obtained by
  # uncommenting the line beginning with "for_aux"  below, thus adding an extra g radial
  # function to the construction of the product basis set for the expansion.
  # See Ref. New J. Phys. 17, 093020 (2015) for more information, particularly Figs. 1 and 6.
  #
  ################################################################################
  #
  # for_aux hydro 5 g 6.0
  
  -----------------------------------------------------------------------
  Completed first pass over input file control.in .
  -----------------------------------------------------------------------
  
  
  -----------------------------------------------------------------------
  Parsing geometry.in (first pass over file, find array dimensions only).
  The contents of geometry.in will be repeated verbatim below
  unless switched off by setting 'verbatim_writeout .false.' .
  in the first line of geometry.in .
  -----------------------------------------------------------------------
  
  #=======================================================
  # FHI-aims file: ./data/test_rep/geometry.in.6
  # Created using the Atomic Simulation Environment (ASE)
  # Mon Jul  4 10:30:48 2022
  #=======================================================
  lattice_vector 19.9939595222700000 0.0000000000000000 0.0000000000000000
  lattice_vector 0.0000000000000000 9.9969797611350000 0.0000000000000000
  lattice_vector 0.0000000000000000 0.0000000000000000 9.9969797611350000
  atom 6.6844546840499808 9.6314178511931328 6.6354266868398684 Li
  atom 16.7366689736820717 9.5688443228939573 6.8875573418942411 Li
  atom 6.8534493905434068 0.6009628497479050 3.6849745703935470 Li
  atom 16.7536195978394069 0.2940269529094242 3.6199894476713372 Li
  atom 3.0600223044645452 6.9860064096241965 0.3295351154686093 Li
  atom 13.1079653124145974 6.6751841235911025 0.4969708886645462 Li
  atom 3.0294637529627670 3.5610184049213403 9.5960856069817222 Li
  atom 13.2606138548870085 3.4068223012946564 9.6295622148350937 Li
  atom 9.6827160365180536 3.3146554828111334 3.2007739177267847 Li
  atom 19.8828702245839537 3.2467077489558451 3.1212632929031954 Li
  atom 6.7562823993570342 5.1300040438535994 1.7845924867879206 Li
  atom 16.2347834611273285 6.4443398752929237 1.3869405404744348 Li
  atom 6.2705306146707080 3.7715907644139683 8.8421858041858279 Li
  atom 16.8620249953817343 5.1513209937544007 8.5112506963035770 Li
  atom 3.4953986704550659 1.1037996389937148 3.6922033039955822 Li
  atom 13.5280540664134588 1.2671472274846356 3.8768395924761720 Li
  atom 0.0231705300618326 1.9787893390905567 8.0551239980557785 Li
  atom 10.3065318586980617 1.4692821040597861 7.9468718306348718 Li
  atom 0.4008499020809256 6.8590886436566700 3.1830737557631981 Li
  atom 10.0434993287055612 6.9761582759359326 2.8337457164974094 Li
  atom 9.9414491625797545 7.9483999031308850 8.0489507894044738 Li
  atom 19.7282147283316149 7.5050223450957914 7.6575919954964435 Li
  atom 1.5110211318879037 9.6265096258548191 1.7984325093244165 Li
  atom 11.8203620870523469 9.6132497341278658 1.6044325187274178 Li
  atom 2.0574797280368657 0.0901760692207103 8.2931585991394083 Li
  atom 13.2684231827253196 9.8167994888591252 6.8608930820193672 Li
  atom 3.1281552794585403 8.2018240064272447 4.9981930839039519 Li
  atom 11.7554008806778931 7.0322262010239323 4.8907044517617644 Li
  atom 8.2622998354584514 6.7206334463913393 5.2668114009721547 Li
  atom 17.8328568251887205 6.8632027082194575 5.4866422579711323 Li
  atom 8.7033720096461415 3.8109223914577495 6.1343178150208937 Li
  atom 17.9463128379919361 3.2855924469845079 5.0186078846149247 Li
  atom 5.2518377006538017 6.5456092645618220 8.2941305764806916 Li
  atom 15.0479753912072738 6.9631473431629454 8.2340315962824615 Li
  atom 5.0054232834968051 3.0956387448964655 1.8339941316358164 Li
  atom 15.3021323300156933 3.5585712440420925 1.8184848562130995 Li
  atom 1.7291822239563044 4.6536826150494370 6.4764853454942672 Li
  atom 11.8242335153813016 4.5641344047800763 6.4739058520656929 Li
  atom 3.1729070466096205 5.3587486915092821 2.3172990896536532 Li
  atom 12.0691208280728262 5.1462675345745215 2.9688966155166097 Li
  atom 8.1099650549371578 1.5632221334190179 0.2927445943395324 Li
  atom 18.0470836697577788 1.7546545942257366 0.4607169684735528 Li
  atom 7.9278865583715676 8.2394369746149643 9.8872032665857681 Li
  atom 18.0633508338026729 8.4059790755471457 9.8286122729638752 Li
  atom 4.6215681603043643 1.7768908759887585 6.4628483056109252 Li
  atom 14.8845797913628619 2.0056032153670178 6.7208103486412174 Li
  atom 4.9095466606733140 8.2022210295022564 3.1281057544100737 Li
  atom 14.3625924810614052 8.0731524987186418 3.9562621507122104 Li
  atom 0.0028540444526601 0.1377476355204240 9.7916419804556316 Cl
  atom 9.7851934789371420 9.8189210151542863 9.7260927631454681 Cl
  atom 19.7998456324209400 4.9404148563742005 4.9116573551479350 Cl
  atom 2.3599211653332599 2.4250020117869071 7.5432546900397881 Cl
  atom 12.5251041987786476 2.3769594960301728 7.4857703861448348 Cl
  atom 7.5397699905631237 7.5400269350832172 7.5807289784116234 Cl
  atom 7.3671507884468612 2.6964928773919419 2.3299410185506506 Cl
  atom 17.5273076583583176 2.5460471280383397 2.7046365453139467 Cl
  atom 19.9264197260284597 9.9930427443702730 5.0561907516140785 P
  atom 9.8998894714188364 0.0395355863260062 4.8726876436601572 P
  atom 4.9699407478200825 0.0787621086021417 0.0263997007778859 P
  atom 14.9757166195905747 0.0810846836893626 0.1499717034552674 P
  atom 0.0157839883796095 5.0466646756975075 0.0933017534547398 P
  atom 9.9913277096560833 4.8835119800880156 9.8661995894725383 P
  atom 5.0048062342241852 4.9560188514748180 5.1131644692754055 P
  atom 14.9519828500754031 5.0645932965789262 5.0608924836001643 P
  atom 1.1818268258110260 8.8967548145457602 6.3109846462301373 S
  atom 11.1005658748477583 8.9575465469823641 6.1983127973794510 S
  atom 8.6449097218337378 1.2587857500842641 6.0014287296998710 S
  atom 18.6714210353017442 1.2083579761050078 6.1872799815581265 S
  atom 8.6335060785829256 8.7537630211100392 3.8499283152227521 S
  atom 18.7565245456797420 8.6856810247581091 3.9613657771152897 S
  atom 1.0378497020479267 1.1760780012862861 3.7427367861509153 S
  atom 11.0051153899413379 1.1680796449016966 3.5511457673552882 S
  atom 6.1011206988858770 1.2331453624055746 8.6986771746819773 S
  atom 16.1687565358949783 1.1788449400613394 8.8561239954261044 S
  atom 6.2981418427205496 9.2154174711575720 1.3562095290703724 S
  atom 16.2388360657736435 9.0206748212321610 1.4341969776994348 S
  atom 3.9647505993220618 8.6966783176924523 8.8459801871157531 S
  atom 13.6616976609455545 8.8345460362397272 9.1180340471122143 S
  atom 3.5621690138642887 1.2634499250711591 1.0178043703975099 S
  atom 13.8035871105550072 1.3984032769994967 1.2662124193465891 S
  atom 8.7468266390382645 6.1762308306678166 0.9345664336750629 S
  atom 18.9183790411963493 6.3967442085165915 1.2149252713023153 S
  atom 1.2851762046027797 5.9904707655291496 8.7257339604351145 S
  atom 11.2483675588163248 5.9610597511964496 8.6397402268954053 S
  atom 8.8346564823932265 3.5354419707988018 8.7325778468882085 S
  atom 18.7464320134327203 3.7392460473954783 9.0795512204297033 S
  atom 1.2738867102479245 3.9421064154756897 1.3255471941742119 S
  atom 11.1224333173313301 3.7194359256982925 1.1439998858268179 S
  atom 6.2017559955407320 6.1714130517126309 3.9384064073995626 S
  atom 16.1464687401763172 6.2632100360099985 3.8738107275357527 S
  atom 6.1909098628838857 3.7696620468712023 6.3302858407243656 S
  atom 16.1506632597568576 3.9955428026742728 6.3730713202123104 S
  atom 3.7771394714830913 3.7109820056535332 3.9696750544306134 S
  atom 13.8417621948720395 3.7760913517155101 3.8821282842763845 S
  atom 3.7624213924085343 6.1090677067042192 6.3101208240026434 S
  atom 13.6852832615508735 6.2548275081313403 6.1993382960981842 S
  atom 17.4084432931340203 7.4333765356187218 7.7493001318166908 S
  atom 2.6003797793648178 7.6400901573648499 2.6142926719457713 S
  atom 12.3630037892110050 7.5017374337883274 2.6285267758441555 S
  atom 10.1099051966660944 5.1717326054279082 4.7533033222142604 S
  atom 4.9629675226828809 9.8904177922955938 4.9889481961197104 S
  atom 14.9833713693428248 0.0742036921615346 5.2537554500048396 S
  atom 4.8427375813425950 5.0273749113752437 0.2857297088462106 S
  atom 14.9208780401129140 5.1318031104422293 9.9964236840197405 S
  
  -----------------------------------------------------------------------
  Completed first pass over input file geometry.in .
  -----------------------------------------------------------------------
  

  Basic array size parameters:
  | Number of species                 :        4
  | Number of atoms                   :      104
  | Number of lattice vectors         :        3
  | Max. basis fn. angular momentum   :        4
  | Max. atomic/ionic basis occupied n:        3
  | Max. number of basis fn. types    :        3
  | Max. radial fns per species/type  :        8
  | Max. logarithmic grid size        :     1362
  | Max. radial integration grid size :       91
  | Max. angular integration grid size:      434
  | Max. angular grid division number :        8
  | Radial grid for Hartree potential :     1362
  | Number of spin channels           :        1

------------------------------------------------------------
          Reading file control.in.
------------------------------------------------------------
  XC: Using PBE gradient-corrected functionals.
  Convergence accuracy of total energy:  0.1000E-05
  Convergence accuracy of sum of eigenvalues:  0.1000E-02
  Convergence accuracy of self-consistent charge density:  0.1000E-05
  Convergence accuracy of forces:  0.1000E-03
  Friction is calculated at temperature of   0.3000E+03 K
  Found k-point grid:         1         2         2
 
  Reading configuration options for species Li                  .
  | Found nuclear charge :   3.0000
  | Found atomic mass :    6.94100000000000      amu
  | Found l_max for Hartree potential  :   6
  | Found cutoff potl. onset [A], width [A], scale factor :    5.00000    2.00000    1.00000
  | Threshold for basis-dependent cutoff potential is   0.100000E-03
  | Found data for basic radial integration grid :    29 points, outermost radius =    7.000 A
  | Found multiplier for basic radial grid :   2
  | Found angular grid specification: user-specified.
  | Specified grid contains     5 separate shells.
  | Check grid settings after all constraints further below.
  | Found free-atom valence shell :  2 s   1.000
  | Found free-ion valence shell :  1 s   2.000
  | Found hydrogenic basis function :  2 p   1.600
  | Found hydrogenic basis function :  2 s   2.000
  | Found hydrogenic basis function :  3 d   2.600
  | Found hydrogenic basis function :  3 p   4.600
  | Found hydrogenic basis function :  2 p   1.800
  | Found hydrogenic basis function :  3 s   6.200
  | Found hydrogenic basis function :  4 d   4.700
  | Found hydrogenic basis function :  4 f   4.100
  Species Li                  : Missing cutoff potential type.
  Defaulting to exp(1/x)/(1-x)^2 type cutoff potential.
  Species Li: No 'logarithmic' tag. Using default grid for free atom:
  | Default logarithmic grid data [bohr] : 0.1000E-03 0.1000E+03 0.1012E+01
  Species Li: On-site basis accuracy parameter (for Gram-Schmidt orthonormalisation) not specified.
  Using default value basis_acc =  0.1000000E-03.
  Species Li                  : Using default innermost maximum threshold i_radial=  2 for radial functions.
  Species Li                  : Default cutoff onset for free atom density etc. : 0.50000000E+01 AA.
  Species Li                  : Basic radial grid will be enhanced according to radial_multiplier =   2, to contain    59 grid points.
 
  Reading configuration options for species P                   .
  | Found nuclear charge :  15.0000
  | Found atomic mass :    30.9737620000000      amu
  | Found l_max for Hartree potential  :   6
  | Found cutoff potl. onset [A], width [A], scale factor :    4.00000    2.00000    1.00000
  | Threshold for basis-dependent cutoff potential is   0.100000E-03
  | Found data for basic radial integration grid :    43 points, outermost radius =    7.000 A
  | Found multiplier for basic radial grid :   2
  | Found angular grid specification: user-specified.
  | Specified grid contains     6 separate shells.
  | Check grid settings after all constraints further below.
  | Found free-atom valence shell :  3 s   2.000
  | Found free-atom valence shell :  3 p   3.000
  | Found free-ion valence shell :  3 s   1.000
  | Found free-ion valence shell :  3 p   2.000
  | Found ionic basis function :  3 d , default cutoff radius.
  | Found ionic basis function :  3 p , default cutoff radius.
  | Found hydrogenic basis function :  4 f   6.200
  | Found hydrogenic basis function :  5 g   8.600
  | Found ionic basis function :  3 s , default cutoff radius.
  | Found hydrogenic basis function :  4 d   6.200
  Species P                   : Missing cutoff potential type.
  Defaulting to exp(1/x)/(1-x)^2 type cutoff potential.
  Species P : No 'logarithmic' tag. Using default grid for free atom:
  | Default logarithmic grid data [bohr] : 0.1000E-03 0.1000E+03 0.1012E+01
  | Will include ionic basis functions of  2.0-fold positive P                    ion.
  Species P : On-site basis accuracy parameter (for Gram-Schmidt orthonormalisation) not specified.
  Using default value basis_acc =  0.1000000E-03.
  Species P                   : Using default innermost maximum threshold i_radial=  2 for radial functions.
  Species P                   : Default cutoff onset for free atom density etc. : 0.40000000E+01 AA.
  Species P                   : Basic radial grid will be enhanced according to radial_multiplier =   2, to contain    87 grid points.
 
  Reading configuration options for species S                   .
  | Found nuclear charge :  16.0000
  | Found atomic mass :    32.0650000000000      amu
  | Found l_max for Hartree potential  :   6
  | Found cutoff potl. onset [A], width [A], scale factor :    4.00000    2.00000    1.00000
  | Threshold for basis-dependent cutoff potential is   0.100000E-03
  | Found data for basic radial integration grid :    44 points, outermost radius =    7.000 A
  | Found multiplier for basic radial grid :   2
  | Found angular grid specification: user-specified.
  | Specified grid contains     5 separate shells.
  | Check grid settings after all constraints further below.
  | Found free-atom valence shell :  3 s   2.000
  | Found free-atom valence shell :  3 p   4.000
  | Found free-ion valence shell :  3 s   1.000
  | Found free-ion valence shell :  3 p   3.000
  | Found ionic basis function :  3 d , default cutoff radius.
  | Found hydrogenic basis function :  2 p   1.800
  | Found hydrogenic basis function :  4 f   7.000
  | Found ionic basis function :  3 s , default cutoff radius.
  | Found hydrogenic basis function :  4 d   6.200
  | Found hydrogenic basis function :  5 g  10.800
  Species S                   : Missing cutoff potential type.
  Defaulting to exp(1/x)/(1-x)^2 type cutoff potential.
  Species S : No 'logarithmic' tag. Using default grid for free atom:
  | Default logarithmic grid data [bohr] : 0.1000E-03 0.1000E+03 0.1012E+01
  | Will include ionic basis functions of  2.0-fold positive S                    ion.
  Species S : On-site basis accuracy parameter (for Gram-Schmidt orthonormalisation) not specified.
  Using default value basis_acc =  0.1000000E-03.
  Species S                   : Using default innermost maximum threshold i_radial=  2 for radial functions.
  Species S                   : Default cutoff onset for free atom density etc. : 0.40000000E+01 AA.
  Species S                   : Basic radial grid will be enhanced according to radial_multiplier =   2, to contain    89 grid points.
 
  Reading configuration options for species Cl                  .
  | Found nuclear charge :  17.0000
  | Found atomic mass :    35.4530000000000      amu
  | Found l_max for Hartree potential  :   6
  | Found cutoff potl. onset [A], width [A], scale factor :    4.00000    2.00000    1.00000
  | Threshold for basis-dependent cutoff potential is   0.100000E-03
  | Found data for basic radial integration grid :    45 points, outermost radius =    7.000 A
  | Found multiplier for basic radial grid :   2
  | Found angular grid specification: user-specified.
  | Specified grid contains     5 separate shells.
  | Check grid settings after all constraints further below.
  | Found free-atom valence shell :  3 s   2.000
  | Found free-atom valence shell :  3 p   5.000
  | Found free-ion valence shell :  3 s   1.000
  | Found free-ion valence shell :  3 p   4.000
  | Found ionic basis function :  3 d , default cutoff radius.
  | Found hydrogenic basis function :  2 p   1.900
  | Found hydrogenic basis function :  4 f   7.400
  | Found ionic basis function :  3 s , default cutoff radius.
  | Found hydrogenic basis function :  5 g  10.400
  | Found hydrogenic basis function :  3 d   3.300
  Species Cl                  : Missing cutoff potential type.
  Defaulting to exp(1/x)/(1-x)^2 type cutoff potential.
  Species Cl: No 'logarithmic' tag. Using default grid for free atom:
  | Default logarithmic grid data [bohr] : 0.1000E-03 0.1000E+03 0.1012E+01
  | Will include ionic basis functions of  2.0-fold positive Cl                   ion.
  Species Cl: On-site basis accuracy parameter (for Gram-Schmidt orthonormalisation) not specified.
  Using default value basis_acc =  0.1000000E-03.
  Species Cl                  : Using default innermost maximum threshold i_radial=  2 for radial functions.
  Species Cl                  : Default cutoff onset for free atom density etc. : 0.40000000E+01 AA.
  Species Cl                  : Basic radial grid will be enhanced according to radial_multiplier =   2, to contain    91 grid points.
 
  Finished reading input file 'control.in'. Consistency checks are next.
 
  MPI_IN_PLACE appears to work with this MPI implementation.
  | Keeping use_mpi_in_place .true. (see manual).
  Target number of points in a grid batch is not set. Defaulting to  100
  Method for grid partitioning is not set. Defaulting to parallel hash+maxmin partitioning.
  Batch size limit is not set. Defaulting to    200
  By default, will store active basis functions for each batch.
  If in need of memory, prune_basis_once .false. can be used to disable this option.
  communication_type for Hartree potential was not specified.
  Defaulting to calc_hartree .
  Defaulting to Pulay charge density mixer.
  Pulay mixer: Number of relevant iterations not set.
  Defaulting to    8 iterations.
  Pulay mixer: Number of initial linear mixing iterations not set.
  Defaulting to    0 iterations.
  Work space size for distributed Hartree potential not set.
  Defaulting to   0.200000E+03 MB.
  Mixing parameter for charge density mixing has not been set.
  Using default: charge_mix_param =     0.0500.
  The mixing parameter will be adjusted in iteration number     2 of the first full s.c.f. cycle only.
  Algorithm-dependent basis array size parameters:
  | n_max_pulay                         :        8
  Maximum number of self-consistency iterations not provided.
  Presetting  1000 iterations.
  Presetting      1001 iterations before the initial mixing cycle
  is restarted anyway using the sc_init_iter criterion / keyword.
  Presetting a factor      1.000 between actual scf density residual
  and density convergence criterion sc_accuracy_rho below which sc_init_iter
  takes no effect.
  Geometry relaxation not requested: no relaxation will be performed.
  Handling of forces: Unphysical translation and rotation will be removed from forces.
  No accuracy limit for integral partition fn. given. Defaulting to  0.1000E-14.
  No threshold value for u(r) in integrations given. Defaulting to  0.1000E-05.
  No occupation type (smearing scheme) given. Defaulting to Gaussian broadening, width =  0.1000E-01 eV.
  The width will be adjusted in iteration number     2 of the first full s.c.f. cycle only.
  S.C.F. convergence parameters will be adjusted in iteration number     2 of the first full s.c.f. cycle only.
  No accuracy for occupation numbers given. Defaulting to  0.1000E-12.
  No threshold value for occupation numbers given. Defaulting to  0.0000E+00.
  No accuracy for fermi level given. Defaulting to  0.1000E-19.
  Maximum # of iterations to find E_F not set. Defaulting to  200.
  Preferred method for the eigenvalue solver ('KS_method') not specified in 'control.in'.
  Calling BLACS routine to test compilation state
  Since ScaLAPACK support is enabled, defaulting to 'elsi'.
  Will not use alltoall communication since running on < 1024 CPUs.
  Threshold for basis singularities not set.
  Default threshold for basis singularities:  0.1000E-04
  partition_type (choice of integration weights) for integrals was not specified.
  | Using a version of the partition function of Stratmann and coworkers ('stratmann_smoother').
  | At each grid point, the set of atoms used to build the partition table is smoothly restricted to
  | only those atoms whose free-atom density would be non-zero at that grid point.
  Partitioning for Hartree potential was not defined. Using partition_type for integrals.
  | Adjusted default value of keyword multip_moments_threshold to:       0.10000000E-11
  | This value may affect high angular momentum components of the Hartree potential in periodic systems.
  Spin handling was not defined in control.in. Defaulting to unpolarized case.
  Angular momentum expansion for Kerker preconditioner not set explicitly.
  | Using default value of   0
  No explicit requirement for turning off preconditioner.
  | By default, it will be turned off when the charge convergence reaches
  | sc_accuracy_rho  =   0.100000E-05
  | sc_accuracy_eev  =   0.100000E-02
  | sc_accuracy_etot =   0.100000E-05
  No special mixing parameter while Kerker preconditioner is on.
  Using default: charge_mix_param =     0.0500.
  No q(lm)/r^(l+1) cutoff set for long-range Hartree potential.
  | Using default value of  0.100000E-09 .
  | Verify using the multipole_threshold keyword.
  Defaulting to new monopole extrapolation.
  Density update method: automatic selection selected.
  Using density matrix based charge density update.
  Using density matrix based charge density update.
  Using packed matrix style: index .
  Defaulting to use time-reversal symmetry for k-point grid.
------------------------------------------------------------


------------------------------------------------------------
          Reading geometry description geometry.in.
------------------------------------------------------------
 * Warning! You did not set the 'relativistic' flag in input file 'control.in'.
 * Since you are not attempting to treat any elements beyond Ca(Z=20), FHI-aims
 * will default to 'relativistic none'.
 * You must ensure that this is really what you want!!
 * For example, DO NOT compute total-energy differences between results from
 * different settings of the 'relativistic' flag.
  Input structure read successfully.
  The structure contains      104 atoms,  and a total of       1040.000 electrons.

  Input geometry:
  | Unit cell:
  |       19.99395952        0.00000000        0.00000000
  |        0.00000000        9.99697976        0.00000000
  |        0.00000000        0.00000000        9.99697976
  | Atomic structure:
  |       Atom                x [A]            y [A]            z [A]
  |    1: Species Li            6.68445468        9.63141785        6.63542669
  |    2: Species Li           16.73666897        9.56884432        6.88755734
  |    3: Species Li            6.85344939        0.60096285        3.68497457
  |    4: Species Li           16.75361960        0.29402695        3.61998945
  |    5: Species Li            3.06002230        6.98600641        0.32953512
  |    6: Species Li           13.10796531        6.67518412        0.49697089
  |    7: Species Li            3.02946375        3.56101840        9.59608561
  |    8: Species Li           13.26061385        3.40682230        9.62956221
  |    9: Species Li            9.68271604        3.31465548        3.20077392
  |   10: Species Li           19.88287022        3.24670775        3.12126329
  |   11: Species Li            6.75628240        5.13000404        1.78459249
  |   12: Species Li           16.23478346        6.44433988        1.38694054
  |   13: Species Li            6.27053061        3.77159076        8.84218580
  |   14: Species Li           16.86202500        5.15132099        8.51125070
  |   15: Species Li            3.49539867        1.10379964        3.69220330
  |   16: Species Li           13.52805407        1.26714723        3.87683959
  |   17: Species Li            0.02317053        1.97878934        8.05512400
  |   18: Species Li           10.30653186        1.46928210        7.94687183
  |   19: Species Li            0.40084990        6.85908864        3.18307376
  |   20: Species Li           10.04349933        6.97615828        2.83374572
  |   21: Species Li            9.94144916        7.94839990        8.04895079
  |   22: Species Li           19.72821473        7.50502235        7.65759200
  |   23: Species Li            1.51102113        9.62650963        1.79843251
  |   24: Species Li           11.82036209        9.61324973        1.60443252
  |   25: Species Li            2.05747973        0.09017607        8.29315860
  |   26: Species Li           13.26842318        9.81679949        6.86089308
  |   27: Species Li            3.12815528        8.20182401        4.99819308
  |   28: Species Li           11.75540088        7.03222620        4.89070445
  |   29: Species Li            8.26229984        6.72063345        5.26681140
  |   30: Species Li           17.83285683        6.86320271        5.48664226
  |   31: Species Li            8.70337201        3.81092239        6.13431782
  |   32: Species Li           17.94631284        3.28559245        5.01860788
  |   33: Species Li            5.25183770        6.54560926        8.29413058
  |   34: Species Li           15.04797539        6.96314734        8.23403160
  |   35: Species Li            5.00542328        3.09563874        1.83399413
  |   36: Species Li           15.30213233        3.55857124        1.81848486
  |   37: Species Li            1.72918222        4.65368262        6.47648535
  |   38: Species Li           11.82423352        4.56413440        6.47390585
  |   39: Species Li            3.17290705        5.35874869        2.31729909
  |   40: Species Li           12.06912083        5.14626753        2.96889662
  |   41: Species Li            8.10996505        1.56322213        0.29274459
  |   42: Species Li           18.04708367        1.75465459        0.46071697
  |   43: Species Li            7.92788656        8.23943697        9.88720327
  |   44: Species Li           18.06335083        8.40597908        9.82861227
  |   45: Species Li            4.62156816        1.77689088        6.46284831
  |   46: Species Li           14.88457979        2.00560322        6.72081035
  |   47: Species Li            4.90954666        8.20222103        3.12810575
  |   48: Species Li           14.36259248        8.07315250        3.95626215
  |   49: Species Cl            0.00285404        0.13774764        9.79164198
  |   50: Species Cl            9.78519348        9.81892102        9.72609276
  |   51: Species Cl           19.79984563        4.94041486        4.91165736
  |   52: Species Cl            2.35992117        2.42500201        7.54325469
  |   53: Species Cl           12.52510420        2.37695950        7.48577039
  |   54: Species Cl            7.53976999        7.54002694        7.58072898
  |   55: Species Cl            7.36715079        2.69649288        2.32994102
  |   56: Species Cl           17.52730766        2.54604713        2.70463655
  |   57: Species P            19.92641973        9.99304274        5.05619075
  |   58: Species P             9.89988947        0.03953559        4.87268764
  |   59: Species P             4.96994075        0.07876211        0.02639970
  |   60: Species P            14.97571662        0.08108468        0.14997170
  |   61: Species P             0.01578399        5.04666468        0.09330175
  |   62: Species P             9.99132771        4.88351198        9.86619959
  |   63: Species P             5.00480623        4.95601885        5.11316447
  |   64: Species P            14.95198285        5.06459330        5.06089248
  |   65: Species S             1.18182683        8.89675481        6.31098465
  |   66: Species S            11.10056587        8.95754655        6.19831280
  |   67: Species S             8.64490972        1.25878575        6.00142873
  |   68: Species S            18.67142104        1.20835798        6.18727998
  |   69: Species S             8.63350608        8.75376302        3.84992832
  |   70: Species S            18.75652455        8.68568102        3.96136578
  |   71: Species S             1.03784970        1.17607800        3.74273679
  |   72: Species S            11.00511539        1.16807964        3.55114577
  |   73: Species S             6.10112070        1.23314536        8.69867717
  |   74: Species S            16.16875654        1.17884494        8.85612400
  |   75: Species S             6.29814184        9.21541747        1.35620953
  |   76: Species S            16.23883607        9.02067482        1.43419698
  |   77: Species S             3.96475060        8.69667832        8.84598019
  |   78: Species S            13.66169766        8.83454604        9.11803405
  |   79: Species S             3.56216901        1.26344993        1.01780437
  |   80: Species S            13.80358711        1.39840328        1.26621242
  |   81: Species S             8.74682664        6.17623083        0.93456643
  |   82: Species S            18.91837904        6.39674421        1.21492527
  |   83: Species S             1.28517620        5.99047077        8.72573396
  |   84: Species S            11.24836756        5.96105975        8.63974023
  |   85: Species S             8.83465648        3.53544197        8.73257785
  |   86: Species S            18.74643201        3.73924605        9.07955122
  |   87: Species S             1.27388671        3.94210642        1.32554719
  |   88: Species S            11.12243332        3.71943593        1.14399989
  |   89: Species S             6.20175600        6.17141305        3.93840641
  |   90: Species S            16.14646874        6.26321004        3.87381073
  |   91: Species S             6.19090986        3.76966205        6.33028584
  |   92: Species S            16.15066326        3.99554280        6.37307132
  |   93: Species S             3.77713947        3.71098201        3.96967505
  |   94: Species S            13.84176219        3.77609135        3.88212828
  |   95: Species S             3.76242139        6.10906771        6.31012082
  |   96: Species S            13.68528326        6.25482751        6.19933830
  |   97: Species S            17.40844329        7.43337654        7.74930013
  |   98: Species S             2.60037978        7.64009016        2.61429267
  |   99: Species S            12.36300379        7.50173743        2.62852678
  |  100: Species S            10.10990520        5.17173261        4.75330332
  |  101: Species S             4.96296752        9.89041779        4.98894820
  |  102: Species S            14.98337137        0.07420369        5.25375545
  |  103: Species S             4.84273758        5.02737491        0.28572971
  |  104: Species S            14.92087804        5.13180311        9.99642368

  Lattice parameters for 3D lattice (in Angstroms) :    19.993960    9.996980    9.996980
  Angle(s) between unit vectors (in degrees)      :    90.000000   90.000000   90.000000

  |

  | The smallest distance between any two atoms is         2.05951668 AA.
  |
  | The first atom of this pair is atom number                     72 .
  | The second atom of this pair is atom number                    58 .
  | Wigner-Seitz cell of the first atom image           1     0     0 .
  | (The Wigner-Seitz cell of the second atom is 0 0 0  by definition.)

  Symmetry information by spglib:
  | Precision set to  0.1E-04
  | Number of Operations  : 1
  | Space group           : 1
  | International         : P1
  | Schoenflies           : C1^1

  Quantities derived from the lattice vectors:
  | Reciprocal lattice vector 1:  0.314254  0.000000  0.000000
  | Reciprocal lattice vector 2:  0.000000  0.628508  0.000000
  | Reciprocal lattice vector 3:  0.000000  0.000000  0.628508
  | Unit cell volume                               :   0.199819E+04  A^3

  Range separation radius for Ewald summation (hartree_convergence_parameter):      3.83024836 bohr.

  Fractional coordinates:
                         L1                L2                L3
       atom_frac         0.33432371        0.96343276        0.66374313  Li
       atom_frac         0.83708627        0.95717352        0.68896382  Li
       atom_frac         0.34277600        0.06011444        0.36860879  Li
       atom_frac         0.83793406        0.02941158        0.36210831  Li
       atom_frac         0.15304734        0.69881170        0.03296347  Li
       atom_frac         0.65559627        0.66772008        0.04971210  Li
       atom_frac         0.15151895        0.35620942        0.95989847  Li
       atom_frac         0.66323100        0.34078516        0.96324715  Li
       atom_frac         0.48428207        0.33156569        0.32017409  Li
       atom_frac         0.99444386        0.32476886        0.31222063  Li
       atom_frac         0.33791618        0.51315539        0.17851316  Li
       atom_frac         0.81198441        0.64462868        0.13873596  Li
       atom_frac         0.31362125        0.37727302        0.88448572  Li
       atom_frac         0.84335596        0.51528773        0.85138221  Li
       atom_frac         0.17482273        0.11041331        0.36933188  Li
       atom_frac         0.67660705        0.12675301        0.38780108  Li
       atom_frac         0.00115888        0.19793872        0.80575576  Li
       atom_frac         0.51548228        0.14697260        0.79492727  Li
       atom_frac         0.02004855        0.68611609        0.31840354  Li
       atom_frac         0.50232668        0.69782659        0.28346018  Li
       atom_frac         0.49722263        0.79508012        0.80513825  Li
       atom_frac         0.98670875        0.75072897        0.76599055  Li
       atom_frac         0.07557388        0.96294179        0.17989758  Li
       atom_frac         0.59119666        0.96161540        0.16049172  Li
       atom_frac         0.10290507        0.00902033        0.82956641  Li
       atom_frac         0.66362159        0.98197653        0.68629659  Li
       atom_frac         0.15645502        0.82043019        0.49997031  Li
       atom_frac         0.58794762        0.70343507        0.48921820  Li
       atom_frac         0.41323980        0.67226639        0.52684026  Li
       atom_frac         0.89191222        0.68652762        0.54882999  Li
       atom_frac         0.43530007        0.38120737        0.61361711  Li
       atom_frac         0.89758673        0.32865851        0.50201241  Li
       atom_frac         0.26267122        0.65475868        0.82966364  Li
       atom_frac         0.75262608        0.69652510        0.82365192  Li
       atom_frac         0.25034677        0.30965740        0.18345482  Li
       atom_frac         0.76533777        0.35596463        0.18190342  Li
       atom_frac         0.08648523        0.46550886        0.64784420  Li
       atom_frac         0.59139029        0.45655133        0.64758617  Li
       atom_frac         0.15869328        0.53603677        0.23179992  Li
       atom_frac         0.60363835        0.51478223        0.29697936  Li
       atom_frac         0.40562076        0.15636944        0.02928330  Li
       atom_frac         0.90262680        0.17551847        0.04608562  Li
       atom_frac         0.39651408        0.82419262        0.98901903  Li
       atom_frac         0.90344040        0.84085186        0.98315816  Li
       atom_frac         0.23114822        0.17774277        0.64648008  Li
       atom_frac         0.74445383        0.20062091        0.67228408  Li
       atom_frac         0.24555150        0.82046990        0.31290508  Li
       atom_frac         0.71834658        0.80755915        0.39574574  Li
       atom_frac         0.00014275        0.01377893        0.97946002  Cl
       atom_frac         0.48940749        0.98218875        0.97290312  Cl
       atom_frac         0.99029137        0.49419074        0.49131412  Cl
       atom_frac         0.11803171        0.24257346        0.75455336  Cl
       atom_frac         0.62644441        0.23776776        0.74880320  Cl
       atom_frac         0.37710239        0.75423049        0.75830192  Cl
       atom_frac         0.36846883        0.26973075        0.23306449  Cl
       atom_frac         0.87663015        0.25468163        0.27054537  Cl
       atom_frac         0.99662199        0.99960618        0.50577183  P
       atom_frac         0.49514402        0.00395475        0.48741598  P
       atom_frac         0.24857211        0.00787859        0.00264077  P
       atom_frac         0.74901205        0.00811092        0.01500170  P
       atom_frac         0.00078944        0.50481893        0.00933299  P
       atom_frac         0.49971731        0.48849874        0.98691803  P
       atom_frac         0.25031591        0.49575161        0.51147092  P
       atom_frac         0.74782500        0.50661234        0.50624215  P
       atom_frac         0.05910919        0.88994427        0.63128913  S
       atom_frac         0.55519598        0.89602528        0.62001854  S
       atom_frac         0.43237607        0.12591660        0.60032419  S
       atom_frac         0.93385310        0.12087230        0.61891493  S
       atom_frac         0.43180572        0.87564077        0.38510914  S
       atom_frac         0.93810956        0.86883051        0.39625626  S
       atom_frac         0.05190816        0.11764333        0.37438675  S
       atom_frac         0.55042201        0.11684325        0.35522186  S
       atom_frac         0.30514820        0.12335179        0.87013052  S
       atom_frac         0.80868207        0.11792011        0.88587996  S
       atom_frac         0.31500223        0.92182016        0.13566193  S
       atom_frac         0.81218710        0.90234001        0.14346303  S
       atom_frac         0.19829742        0.86993057        0.88486527  S
       atom_frac         0.68329125        0.88372151        0.91207887  S
       atom_frac         0.17816226        0.12638316        0.10181119  S
       atom_frac         0.69038787        0.13988258        0.12665950  S
       atom_frac         0.43747346        0.61780968        0.09348488  S
       atom_frac         0.94620473        0.63986768        0.12152923  S
       atom_frac         0.06427822        0.59922806        0.87283701  S
       atom_frac         0.56258829        0.59628607        0.86423504  S
       atom_frac         0.44186628        0.35365101        0.87352161  S
       atom_frac         0.93760478        0.37403757        0.90822943  S
       atom_frac         0.06371358        0.39432974        0.13259477  S
       atom_frac         0.55628968        0.37205596        0.11443455  S
       atom_frac         0.31018148        0.61732775        0.39395963  S
       atom_frac         0.80756734        0.62651022        0.38749811  S
       atom_frac         0.30963901        0.37708009        0.63321983  S
       atom_frac         0.80777713        0.39967499        0.63749967  S
       atom_frac         0.18891403        0.37121031        0.39708744  S
       atom_frac         0.69229720        0.37772322        0.38833011  S
       atom_frac         0.18817790        0.61109133        0.63120272  S
       atom_frac         0.68447089        0.62567172        0.62012112  S
       atom_frac         0.87068513        0.74356223        0.77516413  S
       atom_frac         0.13005827        0.76423983        0.26150825  S
       atom_frac         0.61833694        0.75040038        0.26293209  S
       atom_frac         0.50564798        0.51732951        0.47547394  S
       atom_frac         0.24822335        0.98934058        0.49904554  S
       atom_frac         0.74939490        0.00742261        0.52553427  S
       atom_frac         0.24221003        0.50288938        0.02858160  S
       atom_frac         0.74626929        0.51333535        0.99994438  S

  Number of empty states per atom not set in control.in - providing a guess from actual geometry.
  | Total number of empty states used during s.c.f. cycle:      240
  If you use a very high smearing, use empty_states (per atom!) in control.in to increase this value.

  Structure-dependent array size parameters: 
  | Maximum number of distinct radial functions  :       43
  | Maximum number of basis functions            :     3624
  | Number of Kohn-Sham states (occupied + empty):      760
------------------------------------------------------------

------------------------------------------------------------
          Preparing all fixed parts of the calculation.
------------------------------------------------------------
  Determining machine precision:
    2.225073858507201E-308
  Setting up grids for atomic and cluster calculations.

  Creating wave function, potential, and density for free atoms.

  Species: Li

  List of occupied orbitals and eigenvalues:
    n    l              occ      energy [Ha]    energy [eV]
    1    0           2.0000        -1.901473       -51.7417
    2    0           1.0000        -0.103132        -2.8064


  Species: P

  List of occupied orbitals and eigenvalues:
    n    l              occ      energy [Ha]    energy [eV]
    1    0           2.0000       -76.356288     -2077.7603
    2    0           2.0000        -6.358286      -173.0178
    3    0           2.0000        -0.509419       -13.8620
    2    1           6.0000        -4.573976      -124.4642
    3    1           3.0000        -0.201560        -5.4847


  Species: S

  List of occupied orbitals and eigenvalues:
    n    l              occ      energy [Ha]    energy [eV]
    1    0           2.0000       -88.108280     -2397.5483
    2    0           2.0000        -7.732485      -210.4116
    3    0           2.0000        -0.629532       -17.1304
    2    1           6.0000        -5.750324      -156.4743
    3    1           4.0000        -0.257562        -7.0086


  Species: Cl

  List of occupied orbitals and eigenvalues:
    n    l              occ      energy [Ha]    energy [eV]
    1    0           2.0000      -100.710795     -2740.4802
    2    0           2.0000        -9.222997      -250.9705
    3    0           2.0000        -0.754245       -20.5241
    2    1           6.0000        -7.039872      -191.5647
    3    1           5.0000        -0.316221        -8.6048

  Creating fixed part of basis set: Ionic, confined, hydrogenic.
 
  Li                   hydrogenic:
 
  List of hydrogenic basis orbitals: 
    n    l      effective z      eigenvalue [eV]  inner max. [A]     outer max. [A]     outer radius [A]   
    2    1         1.600000        -8.7048           1.319365           1.319365           6.386418
    2    0         2.000000       -13.6052           0.203259           1.385485           6.232164
    3    2         2.600000       -10.2084           1.835332           1.835332           6.386418
    3    1         4.600000       -31.9883           0.343834           1.385485           5.381805
    2    1         1.800000       -11.0199           1.181903           1.181903           6.386418
    3    0         6.200000       -58.1113           0.062858           1.111823           4.371906
    4    2         4.700000       -18.7772           0.761113           2.401695           6.386418
    4    3         4.100000       -14.2833           2.073992           2.073992           6.386418
 
 
  P                    ion:

  List of free ionic orbitals and eigenvalues:
    n    l      energy [Ha]    energy [eV]
    1    0       -77.297133     -2103.3620
    2    0        -7.273914      -197.9333
    3    0        -1.267536       -34.4914
    2    1        -5.491316      -149.4263
    3    1        -0.913470       -24.8568


  List of ionic basis orbitals and eigenvalues:
    n    l      energy [Ha]    energy [eV]    outer radius [A]
    3    2        -0.458060       -12.4644       5.404780
    3    1        -0.913461       -24.8565       4.724723
    3    0        -1.267529       -34.4912       4.232463

 
  P                    hydrogenic:
 
  List of hydrogenic basis orbitals: 
    n    l      effective z      eigenvalue [eV]  inner max. [A]     outer max. [A]     outer radius [A]   
    4    3         6.200000       -32.6870           1.357793           1.357793           5.339109
    5    4         8.600000       -40.2502           1.534356           1.534356           5.404780
    4    2         6.200000       -32.6848           0.577014           1.820771           5.404780
 
 
  S                    ion:

  List of free ionic orbitals and eigenvalues:
    n    l      energy [Ha]    energy [eV]
    1    0       -89.127201     -2425.2745
    2    0        -8.724378      -237.4024
    3    0        -1.464668       -39.8556
    2    1        -6.744348      -183.5230
    3    1        -1.048520       -28.5317


  List of ionic basis orbitals and eigenvalues:
    n    l      energy [Ha]    energy [eV]    outer radius [A]
    3    2        -0.496514       -13.5108       5.386362
    3    0        -1.464662       -39.8555       3.967934

 
  S                    hydrogenic:
 
  List of hydrogenic basis orbitals: 
    n    l      effective z      eigenvalue [eV]  inner max. [A]     outer max. [A]     outer radius [A]   
    2    1         1.800000       -11.0118           1.168531           1.168531           5.452614
    4    3         7.000000       -41.6672           1.212182           1.212182           5.066981
    4    2         6.200000       -32.6848           0.582121           1.814567           5.386362
    5    4        10.800000       -63.4785           1.227092           1.227092           4.766538
 
 
  Cl                   ion:

  List of free ionic orbitals and eigenvalues:
    n    l      energy [Ha]    energy [eV]
    1    0      -101.807232     -2770.3157
    2    0       -10.290876      -280.0290
    3    0        -1.664625       -45.2967
    2    1        -8.110237      -220.6908
    3    1        -1.183915       -32.2160


  List of ionic basis orbitals and eigenvalues:
    n    l      energy [Ha]    energy [eV]    outer radius [A]
    3    2        -0.529392       -14.4055       5.389057
    3    0        -1.664620       -45.2966       3.780461

 
  Cl                   hydrogenic:
 
  List of hydrogenic basis orbitals: 
    n    l      effective z      eigenvalue [eV]  inner max. [A]     outer max. [A]     outer radius [A]   
    2    1         1.900000       -12.2741           1.113321           1.113321           5.389057
    4    3         7.400000       -46.5653           1.140877           1.140877           4.886961
    5    4        10.400000       -58.8635           1.273568           1.273568           4.886961
    3    2         3.300000       -16.4532           1.439178           1.439178           5.455343
 

  Adding cutoff potential to free-atom effective potential.
  Creating atomic-like basis functions for current effective potential.

  Species Li                  :

  List of atomic basis orbitals and eigenvalues:
    n    l      energy [Ha]    energy [eV]    outer radius [A]
    1    0        -1.901473       -51.7417       4.318785
    2    0        -0.103132        -2.8064       6.464971


  Species P                   :

  List of atomic basis orbitals and eigenvalues:
    n    l      energy [Ha]    energy [eV]    outer radius [A]
    1    0       -76.356288     -2077.7603       0.736837
    2    0        -6.358286      -173.0178       2.532824
    3    0        -0.509419       -13.8620       5.274236
    2    1        -4.573976      -124.4642       2.862183
    3    1        -0.201560        -5.4847       5.404780


  Species S                   :

  List of atomic basis orbitals and eigenvalues:
    n    l      energy [Ha]    energy [eV]    outer radius [A]
    1    0       -88.108280     -2397.5483       0.682391
    2    0        -7.732485      -210.4116       2.317169
    3    0        -0.629532       -17.1304       5.256262
    2    1        -5.750324      -156.4743       2.555240
    3    1        -0.257562        -7.0086       5.386362


  Species Cl                  :

  List of atomic basis orbitals and eigenvalues:
    n    l      energy [Ha]    energy [eV]    outer radius [A]
    1    0      -100.710795     -2740.4802       0.642251
    2    0        -9.222997      -250.9705       2.128190
    3    0        -0.754245       -20.5241       5.194994
    2    1        -7.039872      -191.5647       2.346844
    3    1        -0.316221        -8.6048       5.323577

  Assembling full basis from fixed parts.
  | Species Li :   atomic orbital   1 s accepted.
  | Species Li :    hydro orbital   3 s accepted.
  | Species Li :    hydro orbital   2 s accepted.
  | Species Li :   atomic orbital   2 s accepted.
  | Species Li :    hydro orbital   3 p accepted.
  | Species Li :    hydro orbital   2 p accepted.
  | Species Li :    hydro orbital   2 p accepted.
  | Species Li :    hydro orbital   3 d accepted.
  | Species Li :    hydro orbital   4 d accepted.
  | Species Li :    hydro orbital   4 f accepted.
  | Species P :   atomic orbital   1 s accepted.
  | Species P :   atomic orbital   2 s accepted.
  | Species P :    ionic orbital   3 s accepted.
  | Species P :   atomic orbital   3 s accepted.
  | Species P :   atomic orbital   2 p accepted.
  | Species P :    ionic orbital   3 p accepted.
  | Species P :   atomic orbital   3 p accepted.
  | Species P :    ionic orbital   3 d accepted.
  | Species P :    hydro orbital   4 d accepted.
  | Species P :    hydro orbital   4 f accepted.
  | Species P :    hydro orbital   5 g accepted.
  | Species S :   atomic orbital   1 s accepted.
  | Species S :   atomic orbital   2 s accepted.
  | Species S :    ionic orbital   3 s accepted.
  | Species S :   atomic orbital   3 s accepted.
  | Species S :   atomic orbital   2 p accepted.
  | Species S :   atomic orbital   3 p accepted.
  | Species S :    hydro orbital   2 p accepted.
  | Species S :    ionic orbital   3 d accepted.
  | Species S :    hydro orbital   4 d accepted.
  | Species S :    hydro orbital   4 f accepted.
  | Species S :    hydro orbital   5 g accepted.
  | Species Cl :   atomic orbital   1 s accepted.
  | Species Cl :   atomic orbital   2 s accepted.
  | Species Cl :    ionic orbital   3 s accepted.
  | Species Cl :   atomic orbital   3 s accepted.
  | Species Cl :   atomic orbital   2 p accepted.
  | Species Cl :   atomic orbital   3 p accepted.
  | Species Cl :    hydro orbital   2 p accepted.
  | Species Cl :    ionic orbital   3 d accepted.
  | Species Cl :    hydro orbital   3 d accepted.
  | Species Cl :    hydro orbital   4 f accepted.
  | Species Cl :    hydro orbital   5 g accepted.
 
  Basis size parameters after reduction:
  | Total number of radial functions:       43
  | Total number of basis functions :     3624
 
  Per-task memory consumption for arrays in subroutine allocate_ext:
  |          11.338440MB.
  Testing on-site integration grid accuracy.
  |  Species  Function  <phi|h_atom|phi> (log., in eV)  <phi|h_atom|phi> (rad., in eV)
           1        1                -51.7417001117                -51.7417000312
           1        2                 33.5927188637                 33.5926505054
           1        3                 69.1469416012                 69.1473382425
           1        4                 48.8336153902                 48.8810182289 ***
           1        5                 17.1749490570                 17.1749098864
           1        6                 32.1201183828                 32.1217831653
           1        7                  6.0166019876                  6.0249480535
           1        8                  4.9175332206                  4.9194842525
           1        9                 28.8010599263                 28.8011051086
           1       10                  9.9331480983                  9.9353515081
           2       11              -2077.7602992527              -2077.7602630746
           2       12               -173.0177635265               -173.0177629291
           2       13                -13.5620523038                -13.5620521963
           2       14                  6.3015351439                  6.3015396353
           2       15               -124.4642131574               -124.4642129967
           2       16                 -4.8468074573                 -4.8468065719
           2       17                  5.8113348591                  5.8108493787
           2       18                  5.1218113540                  5.1217878152
           2       19                 22.1386653152                 22.1386624883
           2       20                 19.3047268689                 19.3047231214
           2       21                 30.3235883931                 30.3235836780
           3       22              -2397.5482725833              -2397.5482291499
           3       23               -210.4116306505               -210.4116300246
           3       24                -16.8591546483                -16.8591544436
           3       25                  7.5848976656                  7.5849001027
           3       26               -156.4742745766               -156.4742744285
           3       27                 -7.0089268331                 -7.0089287934
           3       28                  6.8790437028                  6.8789536772
           3       29                  6.0023049431                  6.0023019693
           3       30                 19.5634804122                 19.5634829634
           3       31                 24.6809503130                 24.6809503093
           3       32                 47.5107032033                 47.5107040524
           4       33              -2740.4801671239              -2740.4801157382
           4       34               -250.9705040601               -250.9705032686
           4       35                -20.2716828479                -20.2716826054
           4       36                  9.0161300765                  9.0161279813
           4       37               -191.5646602865               -191.5646600866
           4       38                 -8.6049187754                 -8.6049181478
           4       39                  7.6458046208                  7.6458222053
           4       40                  6.9765726558                  6.9765744583
           4       41                 16.6546700656                 16.6546956458
           4       42                 28.0343243807                 28.0343233726
           4       43                 45.0370063060                 45.0370052039
 * Note: Onsite integrals marked "***" above are less accurate than
 * onsite_accuracy_threshold =    0.03000 eV. Usually, this is harmless.
 * When in doubt, tighten the "radial" and/or "radial_multiplier" flags to check.

  Preparing densities etc. for the partition functions (integrals / Hartree potential).

  Preparations completed.
  max(cpu_time)          :      0.479 s.
  Wall clock time (cpu1) :      0.481 s.
------------------------------------------------------------

------------------------------------------------------------
          Begin self-consistency loop: Initialization.

          Date     :  20220704, Time     :  050357.576
------------------------------------------------------------

  Initializing index lists of integration centers etc. from given atomic structure:
  Mapping all atomic coordinates to central unit cell.

  Initializing the k-points
          Using symmetry for reducing the k-points
  | k-points reduced from:        4 to        4
  | Number of k-points                             :         4
  The eigenvectors in the calculations are REAL.
  | Number of basis functions in the Hamiltonian integrals :     22899
  | Number of basis functions in a single unit cell        :      3624
  | Number of centers in hartree potential         :      2977
  | Number of centers in hartree multipole         :      2245
  | Number of centers in electron density summation:      1784
  | Number of centers in basis integrals           :      1893
  | Number of centers in integrals                 :       783
  | Number of centers in hamiltonian               :      2133
  | Consuming          3 KiB for k_phase.
  | Number of super-cells (origin) [n_cells]                     :         245
  | Number of super-cells (after PM_index) [n_cells]             :          62
  | Number of super-cells in hamiltonian [n_cells_in_hamiltonian]:          62
  | Size of matrix packed + index [n_hamiltonian_matrix_size] :    19602936
  Using simple linear distribution as default method for k-point parallelism.
  * Using 20 tasks for Scalapack Eigenvalue solver.
  Detailed listing of tasks and assigned k-points:
   Task     0 k-point     1 on node047
   Task     1 k-point     1 on node047
   Task     2 k-point     1 on node047
   Task     3 k-point     1 on node047
   Task     4 k-point     1 on node047
   Task     5 k-point     2 on node047
   Task     6 k-point     2 on node047
   Task     7 k-point     2 on node047
   Task     8 k-point     2 on node047
   Task     9 k-point     2 on node047
   Task    10 k-point     3 on node047
   Task    11 k-point     3 on node047
   Task    12 k-point     3 on node047
   Task    13 k-point     3 on node047
   Task    14 k-point     3 on node047
   Task    15 k-point     4 on node047
   Task    16 k-point     4 on node047
   Task    17 k-point     4 on node047
   Task    18 k-point     4 on node047
   Task    19 k-point     4 on node047
  K-point:     1 Tasks:     5 split into      5 X      1 BLACS grid
  Calculating block size based on n_basis =         3624 max_nprow =            5 max_npcol =            1
  ScaLAPACK block size set to:           16
  Allocating       21.338 MB for ovlp
  Allocating       21.338 MB for ham
  Allocating       21.338 MB for eigenvec
  Required Scalapack workspace - INTEGER:            1 REAL:             1
  Partitioning the integration grid into batches with parallel hashing+maxmin method.
  | Number of batches:    21493
  | Maximal batch size:     119
  | Minimal batch size:      49
  | Average batch size:     100.546
  | Standard deviation of batch sizes:      14.961

  Integration load balanced across    20 MPI tasks.
  Work distribution over tasks is as follows:
  Task     0 has     108105 integration points.
  Task     1 has     108063 integration points.
  Task     2 has     108040 integration points.
  Task     3 has     108068 integration points.
  Task     4 has     108087 integration points.
  Task     5 has     108003 integration points.
  Task     6 has     108030 integration points.
  Task     7 has     108078 integration points.
  Task     8 has     108095 integration points.
  Task     9 has     108002 integration points.
  Task    10 has     108014 integration points.
  Task    11 has     108025 integration points.
  Task    12 has     108078 integration points.
  Task    13 has     108094 integration points.
  Task    14 has     108010 integration points.
  Task    15 has     108052 integration points.
  Task    16 has     108087 integration points.
  Task    17 has     107997 integration points.
  Task    18 has     108071 integration points.
  Task    19 has     108041 integration points.
  Initializing partition tables, free-atom densities, potentials, etc. across the integration grid (initialize_grid_storage).
  | initialize_grid_storage: Actual outermost partition radius vs. multipole_radius_free
  | (-- VB: in principle, multipole_radius_free should be larger, hence this output)
  | Species        1: Confinement radius =              7.000000000000000 AA, multipole_radius_free =              7.042572113910259 AA.
  | Species        1: outer_partition_radius set to              7.042572113910259 AA .
  | Species        2: Confinement radius =              6.000000000000000 AA, multipole_radius_free =              6.033387558927091 AA.
  | Species        2: outer_partition_radius set to              6.033387558927091 AA .
  | Species        3: Confinement radius =              6.000000000000000 AA, multipole_radius_free =              6.012827091137924 AA.
  | Species        3: outer_partition_radius set to              6.012827091137924 AA .
  | Species        4: Confinement radius =              6.000000000000000 AA, multipole_radius_free =              6.015836048499353 AA.
  | Species        4: outer_partition_radius set to              6.015836048499353 AA .
  | Original list of interatomic distances with        1893 x       1893 entries is created.
  | Net number of integration points:  2161040
  | of which are non-zero points    :  1719115
  | Numerical average free-atom electrostatic potential    :    -10.60432246 eV
  Renormalizing the initial density to the exact electron count on the 3D integration grid.
  | Initial density: Formal number of electrons (from input files) :    1040.0000000000
  | Integrated number of electrons on 3D grid     :    1039.9999168319
[...]
  | Total energy evaluation                    :        0.004 s           0.014 s

  Partial memory accounting:
  | Current value for overall tracked memory usage on task 0  :         296.249 MB
  | Peak value for overall tracked memory usage on task 0     :         609.895 MB after allocating temp_ham_ovlp
  | Largest tracked array allocation on task 0 so far         :         156.823 MB  when allocating overlap_matrix
  Note:  These values currently only include a subset of arrays which are explicitly tracked.
  The "true" memory usage will be greater.
------------------------------------------------------------
  |------------------------------------------
  | Final ELSI Output
  |------------------------------------------
  | Number of basis functions :         3624
  | Number of electrons       :       1040.0
  | Number of spins           :            1
  | Number of k-points        :            4
  | Number of states          :          760
  | Solver                    :         ELPA
  | Parallel mode             :   MULTI_PROC
  | Matrix format             :  BLACS_DENSE
  | Matrix sparsity           :        0.082
  |------------------------------------------
  | ELSI Project (c)  elsi-interchange.org
  |------------------------------------------
  Removing unitary transformations (pure translations, rotations) from forces on atoms.
  Atomic forces before filtering:
  | Net force on center of mass :  -0.218996E-02  0.749720E-03  0.323098E-02 eV/A
  Atomic forces after filtering:
  | Net force on center of mass :   0.301060E-15  0.144955E-15 -0.245308E-15 eV/A

  Energy and forces in a compact form:
  | Total energy uncorrected      :         -0.617649962132702E+06 eV
  | Total energy corrected        :         -0.617649962132702E+06 eV  <-- do not rely on this value for anything but (periodic) metals
  | Electronic free energy        :         -0.617649962132702E+06 eV
  Total atomic forces (unitary forces cleaned) [eV/Ang]:
  |   1         -0.195222160039176E-01          0.403113795089060E-02         -0.281620790789122E-01
  |   2         -0.929408983194469E-02         -0.129213707918974E-01          0.656132258085873E-03
  |   3         -0.212975209935063E-01         -0.356409265782408E-01          0.226826672944338E-01
  |   4         -0.136577293758752E-01         -0.159763723008296E-01          0.151871691508306E-01
  |   5          0.532478505217582E-02          0.123485767062376E-01          0.143720233984226E-01
  |   6          0.179917811264243E-01         -0.242131573999875E-02          0.179950861140110E-01
  |   7         -0.202757598191890E-02          0.188383094274011E-01          0.207330839137994E-01
  |   8          0.166650798389848E-01          0.164276822430889E-01          0.908899805492091E-02
  |   9          0.260369210686726E-01          0.903659408954005E-02          0.580650338831555E-02
  |  10          0.193053266540475E-01         -0.544064478171849E-02         -0.126958557138103E-01
  |  11         -0.647978744203556E-02          0.148384923615550E-01         -0.140536413612110E-01
  |  12         -0.307616566022232E-01         -0.213334910114968E-01         -0.167128735142975E-01
  |  13         -0.112836631820306E-01          0.228433505148137E-02          0.215531079599318E-02
  |  14         -0.521011907527947E-02          0.840402793707259E-02          0.981135569077793E-02
  |  15          0.108474353504509E-01         -0.278953302660689E-01          0.390721636198288E-01
  |  16          0.273798545435097E-01         -0.138106604771322E-01          0.187010030409960E-01
  |  17         -0.192279055722283E-01          0.115261515909244E-01         -0.569609835583010E-02
  |  18         -0.580378438607846E-02          0.357099684851613E-02         -0.316520084142154E-02
  |  19          0.106267355927224E-01          0.193549260074639E-01         -0.278060158144464E-01
  |  20          0.209400651877929E-01          0.302688126595898E-02         -0.172486657564296E-02
  |  21          0.155568684019641E-01          0.398658130779766E-02         -0.883582897041782E-02
  |  22         -0.184750665995265E-01         -0.244141673747035E-02          0.450435137017047E-02
  |  23          0.166816177788711E-01         -0.128285565981624E-01          0.313955786450924E-01
  |  24          0.203439252762557E-01         -0.201583536472387E-01          0.358785585284894E-01
  |  25          0.787108531479451E-02         -0.162041548664535E-01         -0.136341206067783E-01
  |  26          0.176600379952153E-01         -0.329747654081008E-02         -0.244322811730869E-01
  |  27         -0.174225257954705E-02          0.964644292747280E-02         -0.774367863220708E-02
  |  28         -0.287140700756013E-02          0.136204090676300E-02         -0.212533539468817E-01
  |  29          0.898822012577175E-02         -0.703885935765500E-02         -0.352886347764343E-01
  |  30         -0.348509055100754E-01          0.129628682109519E-01          0.959075946260799E-02
  |  31          0.452151397462657E-02          0.367580919278866E-02         -0.105987779558193E-01
  |  32         -0.155128922353043E-01          0.114063088887998E-02          0.205076932218652E-01
  |  33         -0.315413980154630E-01         -0.127876147004808E-02          0.465845759442244E-03
  |  34          0.146985369837378E-01         -0.868567686109753E-02          0.165979381243392E-01
  |  35         -0.115254520352254E-01          0.145839696094196E-01         -0.104337160983423E-01
  |  36         -0.280970837587729E-01          0.177649908803633E-01         -0.136879048614263E-01
  |  37          0.133858072703121E-01          0.191435877070804E-01          0.989085874224797E-02
  |  38         -0.178667933082862E-02          0.227915486273047E-01         -0.575979867570183E-02
  |  39         -0.242992091112912E-02          0.134505389136680E-01          0.992121124898824E-02
  |  40          0.293461970734164E-02          0.153770600888866E-01          0.863477200777143E-02
  |  41         -0.745345244373974E-02          0.627350781187446E-02         -0.114684052701212E-01
  |  42         -0.104980494498336E-01          0.181278069064930E-01         -0.170608993421222E-01
  |  43          0.194957232780994E-02          0.203820488647244E-02          0.141675007846835E-01
  |  44         -0.259055017500969E-01         -0.258168416508021E-01         -0.166787478890069E-01
  |  45          0.284127268939906E-01         -0.153048607830282E-01         -0.288466520150844E-01
  |  46          0.169079987827778E-01         -0.548005487370407E-02         -0.218885075196615E-01
  |  47         -0.193327481525982E-01          0.128589990512819E-01          0.100854622649582E-01
  |  48         -0.266113870181660E-02          0.374537446170901E-02          0.616890099030905E-02
  |  49          0.682295092566024E-02          0.179781257828883E-01         -0.140244483720757E-01
  |  50         -0.396543527886192E-01          0.130137429373983E-02         -0.329593124857898E-01
  |  51         -0.642386025428626E-02         -0.399162602210170E-01         -0.165024305579568E-01
  |  52         -0.277255968068966E-01          0.787435969170815E-04          0.378414256636790E-01
  |  53         -0.695772450959044E-02          0.488141277062896E-02          0.168066667947895E-01
  |  54          0.171690847091655E-01          0.441089468366479E-01          0.194107114390347E-01
  |  55         -0.603657171035669E-02         -0.137128211284962E-01         -0.337253315173199E-01
  |  56          0.303033523385190E-01         -0.143376724506859E-01          0.511519400593117E-02
  |  57         -0.194696182809963E-01         -0.102446714214540E-01         -0.156318110266548E-01
  |  58         -0.300905893919784E-01          0.146492323529879E-01         -0.430739603006792E-02
  |  59          0.969895701094001E-02         -0.684597486567657E-02         -0.160365408751222E-01
  |  60         -0.335677717753896E-02          0.217902109047662E-01         -0.285148092106874E-02
  |  61          0.147100717908803E-01         -0.732934880254720E-02          0.120683493699773E-01
  |  62          0.367509393660445E-01         -0.128483692293293E-01          0.230703306804530E-02
  |  63         -0.491433835735338E-02         -0.218950642167085E-02          0.200162471285467E-01
  |  64         -0.313811808226434E-02          0.314529393714763E-02          0.132937630311838E-02
  |  65         -0.138093294149221E+00          0.128280756058453E+00         -0.109155933242433E+00
  |  66         -0.127362699867761E+00          0.101653776159682E+00         -0.112629684576482E+00
  |  67          0.161492224116085E+00         -0.135034495104424E+00         -0.115630376361719E+00
  |  68          0.160162117497875E+00         -0.121408859178230E+00         -0.130642550003121E+00
  |  69          0.149722468716268E+00          0.142304881080500E+00          0.145492687984931E+00
  |  70          0.153934430778282E+00          0.140856736657602E+00          0.156126143371335E+00
  |  71         -0.118589431634496E+00         -0.136769170737715E+00          0.102540904316609E+00
  |  72         -0.120842845880045E+00         -0.131182516799544E+00          0.134411686173470E+00
  |  73         -0.114677357771974E+00         -0.122305168687884E+00          0.152168147853862E+00
  |  74         -0.134366306923936E+00         -0.152638531060556E+00          0.155705528641550E+00
  |  75         -0.135472756709301E+00          0.108796427402771E+00         -0.174259702098445E+00
  |  76         -0.100870019768700E+00          0.114934599929439E+00         -0.148395196907487E+00
  |  77          0.860857759161299E-01          0.152470179051885E+00          0.159513190305489E+00
  |  78          0.171391686697827E+00          0.127789370111076E+00          0.103923620275899E+00
  |  79          0.170268982293048E+00         -0.114709626518509E+00         -0.982201265768307E-01
  |  80          0.124036553869626E+00         -0.137829114924265E+00         -0.123584139346504E+00
  |  81          0.117471527605696E+00         -0.124319518264183E+00         -0.111508673449487E+00
  |  82          0.136456482411286E+00         -0.140015090477003E+00         -0.133010086601582E+00
  |  83         -0.156672207638912E+00         -0.102691595260868E+00          0.133467632475899E+00
  |  84         -0.177113320368888E+00         -0.121366529635320E+00          0.143883920120336E+00
  |  85          0.104740329369378E+00          0.945955492978758E-01          0.106099132544360E+00
  |  86          0.142672922682599E+00          0.103770114548087E+00          0.123071029680852E+00
  |  87         -0.140799640032583E+00          0.142779318946785E+00         -0.129505931693992E+00
  |  88         -0.136946648288862E+00          0.164869407424232E+00         -0.133011079054541E+00
  |  89         -0.134273154012829E+00         -0.142382651653990E+00          0.133208968018568E+00
  |  90         -0.134369577339120E+00         -0.119229108003006E+00          0.160328187922942E+00
  |  91         -0.135018469757662E+00          0.126822067379455E+00         -0.106423661119589E+00
  |  92         -0.114579540793653E+00          0.949744973358710E-01         -0.178050603331988E+00
  |  93          0.155386675775394E+00          0.156906612098427E+00          0.818956023121553E-01
  |  94          0.126965328176580E+00          0.153300690946902E+00          0.104481933693427E+00
  |  95          0.133777893671702E+00         -0.148005101646550E+00         -0.134600742949045E+00
  |  96          0.109247199144032E+00         -0.155709580005944E+00         -0.146051180087446E+00
  |  97          0.463561517428521E-01          0.828579463195310E-02         -0.771443162544411E-02
  |  98         -0.380000173430740E-02         -0.221557286365795E-01         -0.133690316058538E-01
  |  99         -0.474554697979770E-01         -0.402853153296642E-01          0.176870311389998E-01
  | 100         -0.925104629163598E-02         -0.625973178236326E-02          0.171374242178248E-01
  | 101          0.206527012112339E-02          0.519889033953300E-01         -0.364370310497606E-01
  | 102         -0.413425652503587E-01          0.393624629326252E-01          0.295484266995534E-02
  | 103          0.209932756850797E-01         -0.635959837365652E-01         -0.428533217309442E-02
  | 104          0.152007306403356E-01          0.339996075938788E-01          0.370886392665972E-01

  ------------------------------------ 
  Start decomposition of the XC Energy 
  ------------------------------------ 
  X and C from original XC functional choice 
  Hartree-Fock Energy :          0.000000000 Ha              0.000000000 eV
  X Energy            :      -1484.763021043 Ha         -40402.457456975 eV
  C Energy            :        -38.882704788 Ha          -1058.052230395 eV
  Total XC Energy     :      -1523.645725831 Ha         -41460.509687370 eV
  ------------------------------------ 
  LDA X and C from self-consistent density 
  X Energy LDA        :      -1373.490215301 Ha         -37374.570355557 eV
  C Energy LDA        :        -78.289432889 Ha          -2130.363860634 eV
  ------------------------------------ 
  End decomposition of the XC Energy 
  ------------------------------------ 

------------------------------------------------------------

------------------------------------------------------------------------------
  Final output of selected total energy values:

  The following output summarizes some interesting total energy values
  at the end of a run (AFTER all relaxation, molecular dynamics, etc.).

  | Total energy of the DFT / Hartree-Fock s.c.f. calculation      :        -617649.962132702 eV
  | Final zero-broadening corrected energy (caution - metals only) :        -617649.962132702 eV
  | For reference only, the value of 1 Hartree used in FHI-aims is :             27.211384500 eV

  Before relying on these values, please be sure to understand exactly which
  total energy value is referred to by a given number. Different objects may
  all carry the same name 'total energy'. Definitions:

  Total energy of the DFT / Hartree-Fock s.c.f. calculation:
  | Note that this energy does not include ANY quantities calculated after the
  | s.c.f. cycle, in particular not ANY RPA, MP2, etc. many-body perturbation terms.

  Final zero-broadening corrected energy:
  | For metallic systems only, a broadening of the occupation numbers at the Fermi
  | level can be extrapolated back to zero broadening by an electron-gas inspired
  | formula. For all systems that are not real metals, this value can be
  | meaningless and should be avoided.

------------------------------------------------------------------------------
  Methods described in the following list of references were used in this FHI-aims run.
  If you publish the results, please make sure to cite these reference if they apply.
  FHI-aims is an academic code, and for our developers (often, Ph.D. students
  and postdocs), scientific credit in the community is essential.
  Thank you for helping us!

  For any use of FHI-aims, please cite:

    Volker Blum, Ralf Gehrke, Felix Hanke, Paula Havu, Ville Havu,
    Xinguo Ren, Karsten Reuter, and Matthias Scheffler
    'Ab initio molecular simulations with numeric atom-centered orbitals'
    Computer Physics Communications 180, 2175-2196 (2009)
    http://dx.doi.org/10.1016/j.cpc.2009.06.022


  The provided symmetry information was generated with SPGlib:

    Atsushi Togo, Yusuke Seto, Dimitar Pashov
    SPGlib 1.7.3 obtained from http://spglib.sourceforge.net
    Copyright (C) 2008 Atsushi Togo


  The scalable eigensolver library ELPA was used in your run.
  ELPA is essential especially for large systems on hundreds or thousands of CPUs.
  For ELPA, please cite:

    Andreas Marek, Volker Blum, Rainer Johanni, Ville Havu, Bruno Lang,
    Thomas Auckenthaler, Alexander Heinecke, Hans-Joachim Bungartz, and Hermann Lederer,
    'The ELPA Library - Scalable Parallel Eigenvalue Solutions
    for Electronic Structure Theory and Computational Science'
    The Journal of Physics: Condensed Matter 26, 213201 (2014).
    http://dx.doi.org/10.1088/0953-8984/26/21/213201


  The ELSI infrastructure was used in your run to solve the Kohn-Sham electronic structure.
  Please check out http://elsi-interchange.org to learn more.
  If scalability is important for your project, please acknowledge ELSI by citing:

    V. W-z. Yu, F. Corsetti, A. Garcia, W. P. Huhn, M. Jacquelin, W. Jia,
    B. Lange, L. Lin, J. Lu, W. Mi, A. Seifitokaldani, A. Vazquez-Mayagoitia,
    C. Yang, H. Yang, and V. Blum
    'ELSI: A unified software interface for Kohn-Sham electronic structure solvers'
    Computer Physics Communications 222, 267-285 (2018).
    http://dx.doi.org/10.1016/j.cpc.2017.09.007


  For the real-space grid partitioning and parallelization used in this calculation, please cite:

    Ville Havu, Volker Blum, Paula Havu, and Matthias Scheffler,
    'Efficient O(N) integration for all-electron electronic structure calculation'
    'using numerically tabulated basis functions'
    Journal of Computational Physics 228, 8367-8379 (2009).
    http://dx.doi.org/10.1016/j.jcp.2009.08.008

  Of course, there are many other important community references, e.g., those cited in the
  above references. Our list is limited to references that describe implementations in the
  FHI-aims code. The reason is purely practical (length of this list) - please credit others as well.

------------------------------------------------------------
          Leaving FHI-aims.
          Date     :  20220704, Time     :  061638.831

          Computational steps:
          | Number of self-consistency cycles          :           21
          | Number of SCF (re)initializations          :            1

          Detailed time accounting                     :  max(cpu_time)    wall_clock(cpu1)
          | Total time                                 :     4361.876 s        4362.033 s
          | Preparation time                           :        0.479 s           0.481 s
          | Boundary condition initalization           :        0.997 s           0.997 s
          | Grid partitioning                          :        4.208 s           4.207 s
          | Preloading free-atom quantities on grid    :        0.035 s           0.035 s
          | Free-atom superposition energy             :        1.781 s           1.781 s
          | Total time for integrations                :      908.466 s         908.402 s
          | Total time for solution of K.-S. equations :       81.351 s          81.350 s
          | Total time for density & force components  :     2740.325 s        2740.110 s
          | Total time for mixing & preconditioning    :      218.558 s         218.641 s
          | Total time for Hartree multipole update    :        0.582 s           0.584 s
          | Total time for Hartree multipole sum       :      390.584 s         390.564 s
          | Total time for total energy evaluation     :        0.012 s           0.035 s

          Partial memory accounting:
          | Residual value for overall tracked memory usage across tasks :           0.000 MB (should be 0.000 MB)
          | Peak values for overall tracked memory usage (after allocating temp_ham_ovlp):
          |   Minimum:      608.504 MB (on task  3)
          |   Maximum:      609.895 MB (on task  1)
          |   Average:      608.921 MB
          | Largest tracked array allocation (overlap_matrix):
          |   Minimum:      156.823 MB (on task  1)
          |   Maximum:      156.823 MB (on task  1)
          |   Average:      156.823 MB
          Note:  These values currently only include a subset of arrays which are explicitly tracked.
          The "true" memory usage will be greater.

          Have a nice day.
------------------------------------------------------------
