  MPI-parallelism will be employed.
------------------------------------------------------------
          Invoking FHI-aims ...
          Version 171221_1
          Compiled on 2020/09/23 at 19:46:43 on host login.service.

          When using FHI-aims, please cite the following reference:

          Volker Blum, Ralf Gehrke, Felix Hanke, Paula Havu,
          Ville Havu, Xinguo Ren, Karsten Reuter, and Matthias Scheffler,
          'Ab Initio Molecular Simulations with Numeric Atom-Centered Orbitals',
          Computer Physics Communications 180, 2175-2196 (2009)

          For any questions about FHI-aims, please visit the aimsclub website
          with its forums and wiki. Contributions to both the forums and the
          wiki are warmly encouraged - they are for you, and everyone is welcome there.

------------------------------------------------------------



  Date     :  20220721, Time     :  125227.719
  Time zero on CPU 1             :   0.648100000000000E-01  s.
  Internal wall clock time zero  :           427639947.719  s.

  FHI-aims created a unique identifier for this run for later identification
  aims_uuid : 31A5E73F-E817-4A97-A2AF-4FE77A17C276

  Using       20 parallel tasks.
  Task        0 on host node062 reporting.
  Task        1 on host node062 reporting.
  Task        2 on host node062 reporting.
  Task        3 on host node062 reporting.
  Task        4 on host node062 reporting.
  Task        5 on host node062 reporting.
  Task        6 on host node062 reporting.
  Task        7 on host node062 reporting.
  Task        8 on host node062 reporting.
  Task        9 on host node062 reporting.
  Task       10 on host node062 reporting.
  Task       11 on host node062 reporting.
  Task       12 on host node062 reporting.
  Task       13 on host node062 reporting.
  Task       14 on host node062 reporting.
  Task       15 on host node062 reporting.
  Task       16 on host node062 reporting.
  Task       17 on host node062 reporting.
  Task       18 on host node062 reporting.
  Task       19 on host node062 reporting.

  Performing system and environment tests:
  *** Environment variable OMP_NUM_THREADS is not set
  *** For performance reasons you might want to set it to 1
  | Maximum stacksize for task 0: unlimited
  | Maximum stacksize for task 1: unlimited
  | Maximum stacksize for task 2: unlimited
  | Maximum stacksize for task 3: unlimited
  | Maximum stacksize for task 4: unlimited
  | Maximum stacksize for task 5: unlimited
  | Maximum stacksize for task 6: unlimited
  | Maximum stacksize for task 7: unlimited
  | Maximum stacksize for task 8: unlimited
  | Maximum stacksize for task 9: unlimited
  | Maximum stacksize for task 10: unlimited
  | Maximum stacksize for task 11: unlimited
  | Maximum stacksize for task 12: unlimited
  | Maximum stacksize for task 13: unlimited
  | Maximum stacksize for task 14: unlimited
  | Maximum stacksize for task 15: unlimited
  | Maximum stacksize for task 16: unlimited
  | Maximum stacksize for task 17: unlimited
  | Maximum stacksize for task 18: unlimited
  | Maximum stacksize for task 19: unlimited
  | Current stacksize for task 0: unlimited
  | Current stacksize for task 1: unlimited
  | Current stacksize for task 2: unlimited
  | Current stacksize for task 3: unlimited
  | Current stacksize for task 4: unlimited
  | Current stacksize for task 5: unlimited
  | Current stacksize for task 6: unlimited
  | Current stacksize for task 7: unlimited
  | Current stacksize for task 8: unlimited
  | Current stacksize for task 9: unlimited
  | Current stacksize for task 10: unlimited
  | Current stacksize for task 11: unlimited
  | Current stacksize for task 12: unlimited
  | Current stacksize for task 13: unlimited
  | Current stacksize for task 14: unlimited
  | Current stacksize for task 15: unlimited
  | Current stacksize for task 16: unlimited
  | Current stacksize for task 17: unlimited
  | Current stacksize for task 18: unlimited
  | Current stacksize for task 19: unlimited
  | Checking for scalapack...
  | Testing pdtran()...
  | All pdtran() tests passed.

  Obtaining array dimensions for all initial allocations:
  
  -----------------------------------------------------------------------
  Parsing control.in (first pass over file, find array dimensions only).
  The contents of control.in will be repeated verbatim below
  unless switched off by setting 'verbatim_writeout .false.' .
  in the first line of control.in .
  -----------------------------------------------------------------------
  
  #===============================================================================
  # FHI-aims file: ./control.in
  # Created using the Atomic Simulation Environment (ASE)
  # Wed Mar 24 12:41:28 2021
  #===============================================================================
  xc                                 pbe
  sc_accuracy_etot                   1e-06
  sc_accuracy_eev                    0.001
  sc_accuracy_rho                    1e-06
  sc_accuracy_forces                 0.0001
  friction_temperature               300  # default 300
  
    k_grid                           6 6 6
  
  
  
  ################################################################################
  #
  #  FHI-aims code project
  #  VB, Fritz-Haber Institut, 2009
  #
  #  Suggested "light" defaults for Li atom (to be pasted into control.in file)
  #  Be sure to double-check any results obtained with these settings for post-processing,
  #  e.g., with the "tight" defaults and larger basis sets.
  #
  ################################################################################
    species        Li
  #     global species definitions
      nucleus             3
      mass                6.941
  #
      l_hartree           4
  #
      cut_pot             3.5  1.5  1.0
      basis_dep_cutoff    1e-4
  #
      radial_base         29 5.0
      radial_multiplier   1
      angular_grids       specified
        division   0.4484  110
        division   0.5659  194
        division   0.6315  302
  #      division   0.6662  434
  #      division   0.8186  590
  #      division   0.9037  770
  #      division   6.2760  974
  #      outer_grid   974
        outer_grid   302
  ################################################################################
  #
  #  Definition of "minimal" basis
  #
  ################################################################################
  #     valence basis states
      valence      2  s   1.
  #     ion occupancy
      ion_occ      1  s   2.
  ################################################################################
  #
  #  Suggested additional basis functions. For production calculations,
  #  uncomment them one after another (the most important basis functions are
  #  listed first).
  #
  #  Constructed for dimers: 1.80 A, 2.25 A, 2.75 A, 3.50 A, 4.50 A
  #
  ################################################################################
  #  "First tier" - improvements: -189.23 meV to -6.35 meV
       hydro 2 p 1.6
       hydro 2 s 2
       hydro 3 d 2.6
  #  "Second tier" - improvements: -4.69 meV to -0.41 meV
  #     hydro 3 p 4.6
  #     hydro 2 p 1.8
  #     hydro 3 s 6.2
  #     hydro 4 d 4.7
  #     hydro 4 f 4.1
  #  "Third tier" - improvements: -0.20 meV to -0.15 meV
  #     hydro 4 d 0.95
  #     hydro 3 p 6.2
  #     hydro 3 s 1.7
  #  Further functions, listed for completeness
  #     VB: The following functions are only listed for completeness; test very
  #         carefully before any kind of production use. From the point of view
  #         of the basis construction, their main role is to fill up space,
  #         and they are solely determined by the location of the cutoff potential.
  #     hydro 3 p 0.1  # -0.15 meV
  #     hydro 4 d 5    # -0.12 meV
  #     hydro 4 f 0.1  # -0.14 meV
  #     hydro 5 g 0.1  # -0.06 meV
  
  
  ################################################################################
  #
  #  FHI-aims code project
  #  VB, Fritz-Haber Institut, 2010
  #
  #  Suggested "light" defaults for P atom (to be pasted into control.in file)
  #  Be sure to double-check any results obtained with these settings for post-processing,
  #  e.g., with the "tight" defaults and larger basis sets.
  #
  ################################################################################
    species        P
  #     global species definitions
      nucleus             15
      mass                30.973762
  #
      l_hartree           4
  #
      cut_pot             3.5          1.5  1.0
      basis_dep_cutoff    1e-4
  #
      radial_base         43 5.0
      radial_multiplier   1
      angular_grids       specified
        division   0.5527   50
        division   0.8801  110
        division   1.1447  194
        division   1.3165  302
  #      division   1.4113  434
  #      division   1.4781  590
  #      division   1.5482  770
  #      division   1.5845  974
  #      division   2.2606 1202
        outer_grid  302
  ################################################################################
  #
  #  Definition of "minimal" basis
  #
  ################################################################################
  #     valence basis states
      valence      3  s   2.
      valence      3  p   3.
  #     ion occupancy
      ion_occ      3  s   1.
      ion_occ      3  p   2.
  ################################################################################
  #
  #  Suggested additional basis functions. For production calculations,
  #  uncomment them one after another (the most important basis functions are
  #  listed first).
  #
  #  Constructed for dimers: 1.625 A, 1.875 A, 2.5 A, 3.25 A, 4.0 A
  #
  ################################################################################
  #  "First tier" - improvements: -726.20 meV to -35.91 meV
       ionic 3 d auto
       ionic 3 p auto
  #     hydro 4 f 6.2
  #     hydro 5 g 8.6
       ionic 3 s auto
  #  "Second tier" - improvements: -16.02 meV to -1.71 meV
  #     hydro 4 d 6.2
  #     hydro 4 p 9.2
  #     hydro 5 f 9.8
  #     hydro 1 s 0.7
  #     hydro 5 g 13.2
  #  "Third tier" - improvements: -1.82 meV to -0.20 meV
  #     hydro 3 p 2.5
  #     hydro 4 d 6.4
  #     hydro 5 f 11.2
  #     hydro 2 s 1.5
  #  "Fourth tier" - improvements: -0.91 meV to -0.17 meV
  #     hydro 3 d 16.8
  #     hydro 5 g 18
  #     hydro 4 p 4.5
  #     hydro 3 s 2.1
  #  Further basis functions that fell out of the optimization - < -0.09 meV
  #     hydro 4 p 10.4
  #     hydro 4 d 17.6
  #     hydro 4 s 11.2
  ################################################################################
  #
  #  FHI-aims code project
  #  VB, Fritz-Haber Institut, 2009
  #
  #  Suggested "light" defaults for S atom (to be pasted into control.in file)
  #  Be sure to double-check any results obtained with these settings for post-processing,
  #  e.g., with the "tight" defaults and larger basis sets.
  #
  ################################################################################
    species        S
  #     global species definitions
      nucleus             16
      mass                32.065
  #
      l_hartree           4
  #
      cut_pot             3.5          1.5  1.0
      basis_dep_cutoff    1e-4
  #
      radial_base         44 5.0
      radial_multiplier   1
      angular_grids       specified
        division   0.4665  110
        division   0.5810  194
        division   0.7139  302
  #      division   0.8274  434
  #      division   0.9105  590
  #      division   1.0975  770
  #      division   1.2028  974
  #      outer_grid  974
        outer_grid  302
  ################################################################################
  #
  #  Definition of "minimal" basis
  #
  ################################################################################
  #     valence basis states
      valence      3  s   2.
      valence      3  p   4.
  #     ion occupancy
      ion_occ      3  s   1.
      ion_occ      3  p   3.
  ################################################################################
  #
  #  Suggested additional basis functions. For production calculations,
  #  uncomment them one after another (the most important basis functions are
  #  listed first).
  #
  #  Constructed for dimers: 1.6 A, 1.9 A, 2.5 A, 3.25 A, 4.0 A
  #
  ################################################################################
  #  "First tier" - improvements: -652.81 meV to -45.53 meV
       ionic 3 d auto
       hydro 2 p 1.8
  #     hydro 4 f 7
       ionic 3 s auto
  #  "Second tier" - improvements: -30.20 meV to -1.74 meV
  #     hydro 4 d 6.2
  #     hydro 5 g 10.8
  #     hydro 4 p 4.9
  #     hydro 5 f 10
  #     hydro 1 s 0.8
  #  "Third tier" - improvements: -1.04 meV to -0.20 meV
  #     hydro 3 d 3.9
  #     hydro 3 d 2.7
  #     hydro 5 g 12
  #     hydro 4 p 10.4
  #     hydro 5 f 12.4
  #     hydro 2 s 1.9
  #  "Fourth tier" - improvements: -0.35 meV to -0.06 meV
  #     hydro 4 d 10.4
  #     hydro 4 p 7.2
  #     hydro 4 d 10
  #     hydro 5 g 19.2
  #     hydro 4 s 12
  
  ################################################################################
  #
  #  FHI-aims code project
  #  VB, Fritz-Haber Institut, 2009
  #
  #  Suggested "light" defaults for Cl atom (to be pasted into control.in file)
  #  Be sure to double-check any results obtained with these settings for post-processing,
  #  e.g., with the "tight" defaults and larger basis sets.
  #
  ################################################################################
    species        Cl
  #     global species definitions
      nucleus             17
      mass                35.453
  #
      l_hartree           4
  #
      cut_pot             3.5          1.5  1.0
      basis_dep_cutoff    1e-4
  #
      radial_base         45 5.0
      radial_multiplier   1
      angular_grids       specified
        division   0.4412  110
        division   0.5489  194
        division   0.6734  302
  #      division   0.7794  434
  #      division   0.9402  590
  #      division   1.0779  770
  #      division   1.1792  974
  #      outer_grid  974
        outer_grid  302
  ################################################################################
  #
  #  Definition of "minimal" basis
  #
  ################################################################################
  #     valence basis states
      valence      3  s   2.
      valence      3  p   5.
  #     ion occupancy
      ion_occ      3  s   1.
      ion_occ      3  p   4.
  ################################################################################
  #
  #  Suggested additional basis functions. For production calculations,
  #  uncomment them one after another (the most important basis functions are
  #  listed first).
  #
  #  Constructed for dimers: 1.65 A, 2.0 A, 2.5 A, 3.25 A, 4.0 A
  #
  ################################################################################
  #  "First tier" - improvements: -429.57 meV to -15.03 meV
       ionic 3 d auto
       hydro 2 p 1.9
  #     hydro 4 f 7.4
       ionic 3 s auto
  #     hydro 5 g 10.4
  #  "Second tier" - improvements: -7.84 meV to -0.48 meV
  #     hydro 3 d 3.3
  #     hydro 5 f 9.8
  #     hydro 1 s 0.75
  #     hydro 5 g 11.2
  #     hydro 4 p 10.4
  #  "Third tier" - improvements: -1.00 meV to -0.12 meV
  #     hydro 4 d 12.8
  #     hydro 4 f 4.6
  #     hydro 4 d 10.8
  #     hydro 2 s 1.8
  #     hydro 3 p 3
  #  Further functions that fell out - improvements: -0.10 meV and below
  #     hydro 5 f 14.4
  #     hydro 4 s 12.8
  #     hydro 3 d 11.6
  #     hydro 4 s 4.1
  
  -----------------------------------------------------------------------
  Completed first pass over input file control.in .
  -----------------------------------------------------------------------
  
  
  -----------------------------------------------------------------------
  Parsing geometry.in (first pass over file, find array dimensions only).
  The contents of geometry.in will be repeated verbatim below
  unless switched off by setting 'verbatim_writeout .false.' .
  in the first line of geometry.in .
  -----------------------------------------------------------------------
  
  #=======================================================
  # FHI-aims file: /home/gz_fan/Documents/ML/train/battery/CCS/CCS/test/LiS/aims_geo/geometry.in.8
  # Created using the Atomic Simulation Environment (ASE)
  # Thu Jul 21 15:36:44 2022
  #=======================================================
  lattice_vector 5.9502164799999999 0.0000000000000000 0.0000000000000000
  lattice_vector 0.0000000000000000 5.9502164799999999 0.0000000000000000
  lattice_vector 0.0000000000000000 0.0000000000000000 5.9502164799999999
  atom 1.4875541200000000 4.4626623600000004 4.4626623600000004 Li
  atom 1.4875541200000000 1.4875541200000000 4.4626623600000004 Li
  atom 1.4875541200000000 1.4875541200000000 1.4875541200000000 Li
  atom 1.4875541200000000 4.4626623600000004 1.4875541200000000 Li
  atom 4.4626623600000004 4.4626623600000004 1.4875541200000000 Li
  atom 4.4626623600000004 1.4875541200000000 1.4875541200000000 Li
  atom 4.4626623600000004 1.4875541200000000 4.4626623600000004 Li
  atom 4.4626623600000004 4.4626623600000004 4.4626623600000004 Li
  atom 0.0000000000000000 0.0000000000000000 0.0000000000000000 S
  atom 0.0000000000000000 2.9751082400000000 2.9751082400000000 S
  atom 2.9751082400000000 0.0000000000000000 2.9751082400000000 S
  atom 2.9751082400000000 2.9751082400000000 0.0000000000000000 S
  
  -----------------------------------------------------------------------
  Completed first pass over input file geometry.in .
  -----------------------------------------------------------------------
  

  Basic array size parameters:
  | Number of species                 :        4
  | Number of atoms                   :       12
  | Number of lattice vectors         :        3
  | Max. basis fn. angular momentum   :        2
  | Max. atomic/ionic basis occupied n:        3
  | Max. number of basis fn. types    :        3
  | Max. radial fns per species/type  :        5
  | Max. logarithmic grid size        :     1362
  | Max. radial integration grid size :       45
  | Max. angular integration grid size:      302
  | Max. angular grid division number :        8
  | Radial grid for Hartree potential :     1362
  | Number of spin channels           :        1

------------------------------------------------------------
          Reading file control.in.
------------------------------------------------------------
  XC: Using PBE gradient-corrected functionals.
  Convergence accuracy of total energy:  0.1000E-05
  Convergence accuracy of sum of eigenvalues:  0.1000E-02
  Convergence accuracy of self-consistent charge density:  0.1000E-05
  Convergence accuracy of forces:  0.1000E-03
  Friction is calculated at temperature of   0.3000E+03 K
  Found k-point grid:         6         6         6
 
  Reading configuration options for species Li                  .
  | Found nuclear charge :   3.0000
  | Found atomic mass :    6.94100000000000      amu
  | Found l_max for Hartree potential  :   4
  | Found cutoff potl. onset [A], width [A], scale factor :    3.50000    1.50000    1.00000
  | Threshold for basis-dependent cutoff potential is   0.100000E-03
  | Found data for basic radial integration grid :    29 points, outermost radius =    5.000 A
  | Found multiplier for basic radial grid :   1
  | Found angular grid specification: user-specified.
  | Specified grid contains     4 separate shells.
  | Check grid settings after all constraints further below.
  | Found free-atom valence shell :  2 s   1.000
  | Found free-ion valence shell :  1 s   2.000
  | Found hydrogenic basis function :  2 p   1.600
  | Found hydrogenic basis function :  2 s   2.000
  | Found hydrogenic basis function :  3 d   2.600
  Species Li                  : Missing cutoff potential type.
  Defaulting to exp(1/x)/(1-x)^2 type cutoff potential.
  Species Li: No 'logarithmic' tag. Using default grid for free atom:
  | Default logarithmic grid data [bohr] : 0.1000E-03 0.1000E+03 0.1012E+01
  Species Li: On-site basis accuracy parameter (for Gram-Schmidt orthonormalisation) not specified.
  Using default value basis_acc =  0.1000000E-03.
  Species Li                  : Using default innermost maximum threshold i_radial=  2 for radial functions.
  Species Li                  : Default cutoff onset for free atom density etc. : 0.35000000E+01 AA.
  Species Li                  : Basic radial grid will be enhanced according to radial_multiplier =   1, to contain    29 grid points.
 
  Reading configuration options for species P                   .
  | Found nuclear charge :  15.0000
  | Found atomic mass :    30.9737620000000      amu
  | Found l_max for Hartree potential  :   4
  | Found cutoff potl. onset [A], width [A], scale factor :    3.50000    1.50000    1.00000
  | Threshold for basis-dependent cutoff potential is   0.100000E-03
  | Found data for basic radial integration grid :    43 points, outermost radius =    5.000 A
  | Found multiplier for basic radial grid :   1
  | Found angular grid specification: user-specified.
  | Specified grid contains     5 separate shells.
  | Check grid settings after all constraints further below.
  | Found free-atom valence shell :  3 s   2.000
  | Found free-atom valence shell :  3 p   3.000
  | Found free-ion valence shell :  3 s   1.000
  | Found free-ion valence shell :  3 p   2.000
  | Found ionic basis function :  3 d , default cutoff radius.
  | Found ionic basis function :  3 p , default cutoff radius.
  | Found ionic basis function :  3 s , default cutoff radius.
  Species P                   : Missing cutoff potential type.
  Defaulting to exp(1/x)/(1-x)^2 type cutoff potential.
  Species P : No 'logarithmic' tag. Using default grid for free atom:
  | Default logarithmic grid data [bohr] : 0.1000E-03 0.1000E+03 0.1012E+01
  | Will include ionic basis functions of  2.0-fold positive P                    ion.
  Species P : On-site basis accuracy parameter (for Gram-Schmidt orthonormalisation) not specified.
  Using default value basis_acc =  0.1000000E-03.
  Species P                   : Using default innermost maximum threshold i_radial=  2 for radial functions.
  Species P                   : Default cutoff onset for free atom density etc. : 0.35000000E+01 AA.
  Species P                   : Basic radial grid will be enhanced according to radial_multiplier =   1, to contain    43 grid points.
 
  Reading configuration options for species S                   .
  | Found nuclear charge :  16.0000
  | Found atomic mass :    32.0650000000000      amu
  | Found l_max for Hartree potential  :   4
  | Found cutoff potl. onset [A], width [A], scale factor :    3.50000    1.50000    1.00000
  | Threshold for basis-dependent cutoff potential is   0.100000E-03
  | Found data for basic radial integration grid :    44 points, outermost radius =    5.000 A
  | Found multiplier for basic radial grid :   1
  | Found angular grid specification: user-specified.
  | Specified grid contains     4 separate shells.
  | Check grid settings after all constraints further below.
  | Found free-atom valence shell :  3 s   2.000
  | Found free-atom valence shell :  3 p   4.000
  | Found free-ion valence shell :  3 s   1.000
  | Found free-ion valence shell :  3 p   3.000
  | Found ionic basis function :  3 d , default cutoff radius.
  | Found hydrogenic basis function :  2 p   1.800
  | Found ionic basis function :  3 s , default cutoff radius.
  Species S                   : Missing cutoff potential type.
  Defaulting to exp(1/x)/(1-x)^2 type cutoff potential.
  Species S : No 'logarithmic' tag. Using default grid for free atom:
  | Default logarithmic grid data [bohr] : 0.1000E-03 0.1000E+03 0.1012E+01
  | Will include ionic basis functions of  2.0-fold positive S                    ion.
  Species S : On-site basis accuracy parameter (for Gram-Schmidt orthonormalisation) not specified.
  Using default value basis_acc =  0.1000000E-03.
  Species S                   : Using default innermost maximum threshold i_radial=  2 for radial functions.
  Species S                   : Default cutoff onset for free atom density etc. : 0.35000000E+01 AA.
  Species S                   : Basic radial grid will be enhanced according to radial_multiplier =   1, to contain    44 grid points.
 
  Reading configuration options for species Cl                  .
  | Found nuclear charge :  17.0000
  | Found atomic mass :    35.4530000000000      amu
  | Found l_max for Hartree potential  :   4
  | Found cutoff potl. onset [A], width [A], scale factor :    3.50000    1.50000    1.00000
  | Threshold for basis-dependent cutoff potential is   0.100000E-03
  | Found data for basic radial integration grid :    45 points, outermost radius =    5.000 A
  | Found multiplier for basic radial grid :   1
  | Found angular grid specification: user-specified.
  | Specified grid contains     4 separate shells.
  | Check grid settings after all constraints further below.
  | Found free-atom valence shell :  3 s   2.000
  | Found free-atom valence shell :  3 p   5.000
  | Found free-ion valence shell :  3 s   1.000
  | Found free-ion valence shell :  3 p   4.000
  | Found ionic basis function :  3 d , default cutoff radius.
  | Found hydrogenic basis function :  2 p   1.900
  | Found ionic basis function :  3 s , default cutoff radius.
  Species Cl                  : Missing cutoff potential type.
  Defaulting to exp(1/x)/(1-x)^2 type cutoff potential.
  Species Cl: No 'logarithmic' tag. Using default grid for free atom:
  | Default logarithmic grid data [bohr] : 0.1000E-03 0.1000E+03 0.1012E+01
  | Will include ionic basis functions of  2.0-fold positive Cl                   ion.
  Species Cl: On-site basis accuracy parameter (for Gram-Schmidt orthonormalisation) not specified.
  Using default value basis_acc =  0.1000000E-03.
  Species Cl                  : Using default innermost maximum threshold i_radial=  2 for radial functions.
  Species Cl                  : Default cutoff onset for free atom density etc. : 0.35000000E+01 AA.
  Species Cl                  : Basic radial grid will be enhanced according to radial_multiplier =   1, to contain    45 grid points.
 
  Finished reading input file 'control.in'. Consistency checks are next.
 
  MPI_IN_PLACE appears to work with this MPI implementation.
  | Keeping use_mpi_in_place .true. (see manual).
  Target number of points in a grid batch is not set. Defaulting to  100
  Method for grid partitioning is not set. Defaulting to parallel hash+maxmin partitioning.
  Batch size limit is not set. Defaulting to    200
  By default, will store active basis functions for each batch.
  If in need of memory, prune_basis_once .false. can be used to disable this option.
  communication_type for Hartree potential was not specified.
  Defaulting to calc_hartree .
  Defaulting to Pulay charge density mixer.
  Pulay mixer: Number of relevant iterations not set.
  Defaulting to    8 iterations.
  Pulay mixer: Number of initial linear mixing iterations not set.
  Defaulting to    0 iterations.
  Work space size for distributed Hartree potential not set.
  Defaulting to   0.200000E+03 MB.
  Mixing parameter for charge density mixing has not been set.
  Using default: charge_mix_param =     0.0500.
  The mixing parameter will be adjusted in iteration number     2 of the first full s.c.f. cycle only.
  Algorithm-dependent basis array size parameters:
  | n_max_pulay                         :        8
  Maximum number of self-consistency iterations not provided.
  Presetting  1000 iterations.
  Presetting      1001 iterations before the initial mixing cycle
  is restarted anyway using the sc_init_iter criterion / keyword.
  Presetting a factor      1.000 between actual scf density residual
  and density convergence criterion sc_accuracy_rho below which sc_init_iter
  takes no effect.
  Geometry relaxation not requested: no relaxation will be performed.
  Handling of forces: Unphysical translation and rotation will be removed from forces.
  No accuracy limit for integral partition fn. given. Defaulting to  0.1000E-14.
  No threshold value for u(r) in integrations given. Defaulting to  0.1000E-05.
  No occupation type (smearing scheme) given. Defaulting to Gaussian broadening, width =  0.1000E-01 eV.
  The width will be adjusted in iteration number     2 of the first full s.c.f. cycle only.
  S.C.F. convergence parameters will be adjusted in iteration number     2 of the first full s.c.f. cycle only.
  No accuracy for occupation numbers given. Defaulting to  0.1000E-12.
  No threshold value for occupation numbers given. Defaulting to  0.0000E+00.
  No accuracy for fermi level given. Defaulting to  0.1000E-19.
  Maximum # of iterations to find E_F not set. Defaulting to  200.
  Preferred method for the eigenvalue solver ('KS_method') not specified in 'control.in'.
  Defaulting to serial version, 'lapack_fast', since more k-points than CPUs available.
  Will not use alltoall communication since running on < 1024 CPUs.
  Threshold for basis singularities not set.
  Default threshold for basis singularities:  0.1000E-04
  partition_type (choice of integration weights) for integrals was not specified.
  | Using a version of the partition function of Stratmann and coworkers ('stratmann_smoother').
  | At each grid point, the set of atoms used to build the partition table is smoothly restricted to
  | only those atoms whose free-atom density would be non-zero at that grid point.
  Partitioning for Hartree potential was not defined. Using partition_type for integrals.
  | Adjusted default value of keyword multip_moments_threshold to:       0.10000000E-11
  | This value may affect high angular momentum components of the Hartree potential in periodic systems.
  Spin handling was not defined in control.in. Defaulting to unpolarized case.
  Angular momentum expansion for Kerker preconditioner not set explicitly.
  | Using default value of   0
  No explicit requirement for turning off preconditioner.
  | By default, it will be turned off when the charge convergence reaches
  | sc_accuracy_rho  =   0.100000E-05
  | sc_accuracy_eev  =   0.100000E-02
  | sc_accuracy_etot =   0.100000E-05
  No special mixing parameter while Kerker preconditioner is on.
  Using default: charge_mix_param =     0.0500.
  No q(lm)/r^(l+1) cutoff set for long-range Hartree potential.
  | Using default value of  0.100000E-09 .
  | Verify using the multipole_threshold keyword.
  Defaulting to new monopole extrapolation.
  Density update method: automatic selection selected.
  Using density matrix based charge density update.
  Using density matrix based charge density update.
  Using packed matrix style: index .
  Defaulting to use time-reversal symmetry for k-point grid.
------------------------------------------------------------


------------------------------------------------------------
          Reading geometry description geometry.in.
------------------------------------------------------------
 * Warning! You did not set the 'relativistic' flag in input file 'control.in'.
 * Since you are not attempting to treat any elements beyond Ca(Z=20), FHI-aims
 * will default to 'relativistic none'.
 * You must ensure that this is really what you want!!
 * For example, DO NOT compute total-energy differences between results from
 * different settings of the 'relativistic' flag.
  Input structure read successfully.
  The structure contains       12 atoms,  and a total of         88.000 electrons.

  Input geometry:
  | Unit cell:
  |        5.95021648        0.00000000        0.00000000
  |        0.00000000        5.95021648        0.00000000
  |        0.00000000        0.00000000        5.95021648
  | Atomic structure:
  |       Atom                x [A]            y [A]            z [A]
  |    1: Species Li            1.48755412        4.46266236        4.46266236
  |    2: Species Li            1.48755412        1.48755412        4.46266236
  |    3: Species Li            1.48755412        1.48755412        1.48755412
  |    4: Species Li            1.48755412        4.46266236        1.48755412
  |    5: Species Li            4.46266236        4.46266236        1.48755412
  |    6: Species Li            4.46266236        1.48755412        1.48755412
  |    7: Species Li            4.46266236        1.48755412        4.46266236
  |    8: Species Li            4.46266236        4.46266236        4.46266236
  |    9: Species S             0.00000000        0.00000000        0.00000000
  |   10: Species S             0.00000000        2.97510824        2.97510824
  |   11: Species S             2.97510824        0.00000000        2.97510824
  |   12: Species S             2.97510824        2.97510824        0.00000000

  Lattice parameters for 3D lattice (in Angstroms) :     5.950216    5.950216    5.950216
  Angle(s) between unit vectors (in degrees)      :    90.000000   90.000000   90.000000

  |

  | The smallest distance between any two atoms is         2.57651931 AA.
  |
  | The first atom of this pair is atom number                      8 .
  | The second atom of this pair is atom number                     9 .
  | Wigner-Seitz cell of the first atom image           0     0     0 .
  | (The Wigner-Seitz cell of the second atom is 0 0 0  by definition.)

  Symmetry information by spglib:
  | Precision set to  0.1E-04
  | Number of Operations  : 192
  | Space group           : 225
  | International         : Fm-3m
  | Schoenflies           : Oh^5

  Quantities derived from the lattice vectors:
  | Reciprocal lattice vector 1:  1.055959  0.000000  0.000000
  | Reciprocal lattice vector 2:  0.000000  1.055959  0.000000
  | Reciprocal lattice vector 3:  0.000000  0.000000  1.055959
  | Unit cell volume                               :   0.210668E+03  A^3

  Range separation radius for Ewald summation (hartree_convergence_parameter):      3.70419152 bohr.

  Fractional coordinates:
                         L1                L2                L3
       atom_frac         0.25000000        0.75000000        0.75000000  Li
       atom_frac         0.25000000        0.25000000        0.75000000  Li
       atom_frac         0.25000000        0.25000000        0.25000000  Li
       atom_frac         0.25000000        0.75000000        0.25000000  Li
       atom_frac         0.75000000        0.75000000        0.25000000  Li
       atom_frac         0.75000000        0.25000000        0.25000000  Li
       atom_frac         0.75000000        0.25000000        0.75000000  Li
       atom_frac         0.75000000        0.75000000        0.75000000  Li
       atom_frac         0.00000000        0.00000000        0.00000000  S
       atom_frac         0.00000000        0.50000000        0.50000000  S
       atom_frac         0.50000000        0.00000000        0.50000000  S
       atom_frac         0.50000000        0.50000000        0.00000000  S

  Number of empty states per atom not set in control.in - providing a guess from actual geometry.
  | Total number of empty states used during s.c.f. cycle:       24
  If you use a very high smearing, use empty_states (per atom!) in control.in to increase this value.

  Structure-dependent array size parameters: 
  | Maximum number of distinct radial functions  :       29
  | Maximum number of basis functions            :      160
  | Number of Kohn-Sham states (occupied + empty):       68
------------------------------------------------------------

------------------------------------------------------------
          Preparing all fixed parts of the calculation.
------------------------------------------------------------
  Determining machine precision:
    2.225073858507201E-308
  Setting up grids for atomic and cluster calculations.

  Creating wave function, potential, and density for free atoms.

  Species: Li

  List of occupied orbitals and eigenvalues:
    n    l              occ      energy [Ha]    energy [eV]
    1    0           2.0000        -1.876896       -51.0729
    2    0           1.0000        -0.084105        -2.2886


  Species: P

  List of occupied orbitals and eigenvalues:
    n    l              occ      energy [Ha]    energy [eV]
    1    0           2.0000       -76.351489     -2077.6297
    2    0           2.0000        -6.353717      -172.8934
    3    0           2.0000        -0.506059       -13.7706
    2    1           6.0000        -4.569386      -124.3393
    3    1           3.0000        -0.198107        -5.3908


  Species: S

  List of occupied orbitals and eigenvalues:
    n    l              occ      energy [Ha]    energy [eV]
    1    0           2.0000       -88.105825     -2397.4815
    2    0           2.0000        -7.730144      -210.3479
    3    0           2.0000        -0.627748       -17.0819
    2    1           6.0000        -5.747971      -156.4103
    3    1           4.0000        -0.255786        -6.9603


  Species: Cl

  List of occupied orbitals and eigenvalues:
    n    l              occ      energy [Ha]    energy [eV]
    1    0           2.0000      -100.709620     -2740.4482
    2    0           2.0000        -9.221874      -250.9399
    3    0           2.0000        -0.753366       -20.5001
    2    1           6.0000        -7.038743      -191.5339
    3    1           5.0000        -0.315359        -8.5813

  Creating fixed part of basis set: Ionic, confined, hydrogenic.
 
  Li                   hydrogenic:
 
  List of hydrogenic basis orbitals: 
    n    l      effective z      eigenvalue [eV]  inner max. [A]     outer max. [A]     outer radius [A]   
    2    1         1.600000        -8.6069           1.303334           1.303334           4.591005
    2    0         2.000000       -13.5631           0.203259           1.385485           4.591005
    3    2         2.600000        -9.9241           1.769240           1.769240           4.591005
 
 
  P                    ion:

  List of free ionic orbitals and eigenvalues:
    n    l      energy [Ha]    energy [eV]
    1    0       -77.297133     -2103.3620
    2    0        -7.273914      -197.9333
    3    0        -1.267536       -34.4914
    2    1        -5.491316      -149.4263
    3    1        -0.913470       -24.8568


  List of ionic basis orbitals and eigenvalues:
    n    l      energy [Ha]    energy [eV]    outer radius [A]
    3    2        -0.457308       -12.4440       4.554583
    3    1        -0.913443       -24.8560       4.337222
    3    0        -1.267519       -34.4910       3.885335

 
  S                    ion:

  List of free ionic orbitals and eigenvalues:
    n    l      energy [Ha]    energy [eV]
    1    0       -89.127201     -2425.2745
    2    0        -8.724378      -237.4024
    3    0        -1.464668       -39.8556
    2    1        -6.744348      -183.5230
    3    1        -1.048520       -28.5317


  List of ionic basis orbitals and eigenvalues:
    n    l      energy [Ha]    energy [eV]    outer radius [A]
    3    2        -0.496135       -13.5005       4.539062
    3    0        -1.464653       -39.8552       3.642502

 
  S                    hydrogenic:
 
  List of hydrogenic basis orbitals: 
    n    l      effective z      eigenvalue [eV]  inner max. [A]     outer max. [A]     outer radius [A]   
    2    1         1.800000       -10.9749           1.168531           1.168531           4.594893
 
 
  Cl                   ion:

  List of free ionic orbitals and eigenvalues:
    n    l      energy [Ha]    energy [eV]
    1    0      -101.807232     -2770.3157
    2    0       -10.290876      -280.0290
    3    0        -1.664625       -45.2967
    2    1        -8.110237      -220.6908
    3    1        -1.183915       -32.2160


  List of ionic basis orbitals and eigenvalues:
    n    l      energy [Ha]    energy [eV]    outer radius [A]
    3    2        -0.529186       -14.3999       4.541334
    3    0        -1.664610       -45.2963       3.428237

 
  Cl                   hydrogenic:
 
  List of hydrogenic basis orbitals: 
    n    l      effective z      eigenvalue [eV]  inner max. [A]     outer max. [A]     outer radius [A]   
    2    1         1.900000       -12.2492           1.113321           1.113321           4.597192
 

  Adding cutoff potential to free-atom effective potential.
  Creating atomic-like basis functions for current effective potential.

  Species Li                  :

  List of atomic basis orbitals and eigenvalues:
    n    l      energy [Ha]    energy [eV]    outer radius [A]
    1    0        -1.876896       -51.0729       4.062706
    2    0        -0.084105        -2.2886       4.591005


  Species P                   :

  List of atomic basis orbitals and eigenvalues:
    n    l      energy [Ha]    energy [eV]    outer radius [A]
    1    0       -76.351489     -2077.6297       0.736837
    2    0        -6.353717      -172.8934       2.532824
    3    0        -0.506059       -13.7706       4.499242
    2    1        -4.569386      -124.3393       2.862183
    3    1        -0.198107        -5.3908       4.554583


  Species S                   :

  List of atomic basis orbitals and eigenvalues:
    n    l      energy [Ha]    energy [eV]    outer radius [A]
    1    0       -88.105825     -2397.4815       0.682391
    2    0        -7.730144      -210.3479       2.317169
    3    0        -0.627748       -17.0819       4.483910
    2    1        -5.747971      -156.4103       2.555240
    3    1        -0.255786        -6.9603       4.539062


  Species Cl                  :

  List of atomic basis orbitals and eigenvalues:
    n    l      energy [Ha]    energy [eV]    outer radius [A]
    1    0      -100.709620     -2740.4482       0.642251
    2    0        -9.221874      -250.9399       2.128190
    3    0        -0.753366       -20.5001       4.431645
    2    1        -7.038743      -191.5339       2.346844
    3    1        -0.315359        -8.5813       4.541334

  Assembling full basis from fixed parts.
  | Species Li :   atomic orbital   1 s accepted.
  | Species Li :   atomic orbital   2 s accepted.
  | Species Li :    hydro orbital   2 s accepted.
  | Species Li :    hydro orbital   2 p accepted.
  | Species Li :    hydro orbital   3 d accepted.
  | Species P :   atomic orbital   1 s accepted.
  | Species P :   atomic orbital   2 s accepted.
  | Species P :    ionic orbital   3 s accepted.
  | Species P :   atomic orbital   3 s accepted.
  | Species P :   atomic orbital   2 p accepted.
  | Species P :    ionic orbital   3 p accepted.
  | Species P :   atomic orbital   3 p accepted.
  | Species P :    ionic orbital   3 d accepted.
  | Species S :   atomic orbital   1 s accepted.
  | Species S :   atomic orbital   2 s accepted.
  | Species S :    ionic orbital   3 s accepted.
  | Species S :   atomic orbital   3 s accepted.
  | Species S :   atomic orbital   2 p accepted.
  | Species S :   atomic orbital   3 p accepted.
  | Species S :    hydro orbital   2 p accepted.
  | Species S :    ionic orbital   3 d accepted.
  | Species Cl :   atomic orbital   1 s accepted.
  | Species Cl :   atomic orbital   2 s accepted.
  | Species Cl :    ionic orbital   3 s accepted.
  | Species Cl :   atomic orbital   3 s accepted.
  | Species Cl :   atomic orbital   2 p accepted.
  | Species Cl :   atomic orbital   3 p accepted.
  | Species Cl :    hydro orbital   2 p accepted.
  | Species Cl :    ionic orbital   3 d accepted.
 
  Basis size parameters after reduction:
  | Total number of radial functions:       29
  | Total number of basis functions :      160
 
  Per-task memory consumption for arrays in subroutine allocate_ext:
  |           7.590024MB.
  Testing on-site integration grid accuracy.
  |  Species  Function  <phi|h_atom|phi> (log., in eV)  <phi|h_atom|phi> (rad., in eV)
           1        1                -51.0729407432                -51.0729328795
           1        2                 -2.3261068990                 -2.3227046518
           1        3                 17.1966930198                 17.2358027191 ***
           1        4                  0.3867256281                  0.3982841734
           1        5                  6.2743141416                  6.2817896417
           2        6              -2077.6297159538              -2077.6288551184
           2        7               -172.8934457906               -172.8934403880
           2        8                -13.4653967551                -13.4655200798
           2        9                  6.4162845277                  6.4013396720
           2       10               -124.3393201040               -124.3393200061
           2       11                 -4.7560266034                 -4.7560495157
           2       12                  6.5873401476                  6.4958904717 ***
           2       13                  5.2911719464                  5.2826493609
           3       14              -2397.4814915323              -2397.4804563634
           3       15               -210.3479335736               -210.3479265952
           3       16                -16.8079362322                -16.8079092816
           3       17                  7.5772439785                  7.5675998324
           3       18               -156.4102581151               -156.4102580951
           3       19                 -6.9617737483                 -6.9640288036
           3       20                  7.5696988470                  7.5151244831 ***
           3       21                  6.0973034823                  6.0928113248
           4       22              -2740.4481953768              -2740.4469735573
           4       23               -250.9399497423               -250.9399403187
           4       24                -20.2462734235                -20.2462512680
           4       25                  8.9460051782                  8.9510436705
           4       26               -191.5339459398               -191.5339455009
           4       27                 -8.5819075957                 -8.5827488985
           4       28                  8.1339828089                  8.0979459360 ***
           4       29                  7.0302175114                  7.0277664253
 * Note: Onsite integrals marked "***" above are less accurate than
 * onsite_accuracy_threshold =    0.03000 eV. Usually, this is harmless.
 * When in doubt, tighten the "radial" and/or "radial_multiplier" flags to check.

  Preparing densities etc. for the partition functions (integrals / Hartree potential).

  Preparations completed.
  max(cpu_time)          :      0.411 s.
  Wall clock time (cpu1) :      0.406 s.
------------------------------------------------------------

------------------------------------------------------------
          Begin self-consistency loop: Initialization.

          Date     :  20220721, Time     :  125228.307
------------------------------------------------------------

  Initializing index lists of integration centers etc. from given atomic structure:
  Mapping all atomic coordinates to central unit cell.

  Initializing the k-points
          Using symmetry for reducing the k-points
  | k-points reduced from:      216 to      112
  | Number of k-points                             :       112
  The eigenvectors in the calculations are COMPLEX.
  | K-points in task   0:         5
  | K-points in task   1:         6
  | K-points in task   2:         6
  | K-points in task   3:         6
  | K-points in task   4:         6
  | K-points in task   5:         6
  | K-points in task   6:         6
  | K-points in task   7:         6
  | K-points in task   8:         6
  | K-points in task   9:         6
  | K-points in task  10:         6
  | K-points in task  11:         6
  | K-points in task  12:         6
  | K-points in task  13:         5
  | K-points in task  14:         5
  | K-points in task  15:         5
  | K-points in task  16:         5
  | K-points in task  17:         5
  | K-points in task  18:         5
  | K-points in task  19:         5
  | Number of basis functions in the Hamiltonian integrals :      2192
  | Number of basis functions in a single unit cell        :       160
  | Number of centers in hartree potential         :      1173
  | Number of centers in hartree multipole         :       594
  | Number of centers in electron density summation:       457
  | Number of centers in basis integrals           :       473
  | Number of centers in integrals                 :       215
  | Number of centers in hamiltonian               :       457
  | Consuming        133 KiB for k_phase.
  | Number of super-cells (origin) [n_cells]                     :         343
  | Number of super-cells (after PM_index) [n_cells]             :          76
  | Number of super-cells in hamiltonian [n_cells_in_hamiltonian]:          76
  | Size of matrix packed + index [n_hamiltonian_matrix_size] :      192421
  Partitioning the integration grid into batches with parallel hashing+maxmin method.
  | Number of batches:     1235
  | Maximal batch size:     141
  | Minimal batch size:      52
  | Average batch size:      67.822
  | Standard deviation of batch sizes:      12.055

  Integration load balanced across    20 MPI tasks.
  Work distribution over tasks is as follows:
  Task     0 has       4161 integration points.
  Task     1 has       4195 integration points.
  Task     2 has       4190 integration points.
  Task     3 has       4183 integration points.
  Task     4 has       4211 integration points.
  Task     5 has       4208 integration points.
  Task     6 has       4160 integration points.
  Task     7 has       4175 integration points.
  Task     8 has       4205 integration points.
  Task     9 has       4217 integration points.
  Task    10 has       4193 integration points.
  Task    11 has       4172 integration points.
  Task    12 has       4177 integration points.
  Task    13 has       4167 integration points.
  Task    14 has       4205 integration points.
  Task    15 has       4166 integration points.
  Task    16 has       4199 integration points.
  Task    17 has       4222 integration points.
  Task    18 has       4155 integration points.
  Task    19 has       4199 integration points.
  Initializing partition tables, free-atom densities, potentials, etc. across the integration grid (initialize_grid_storage).
  | initialize_grid_storage: Actual outermost partition radius vs. multipole_radius_free
  | (-- VB: in principle, multipole_radius_free should be larger, hence this output)
  | Species        1: Confinement radius =              4.999999999999999 AA, multipole_radius_free =              5.001180127821857 AA.
  | Species        1: outer_partition_radius set to              5.001180127821857 AA .
  | Species        2: Confinement radius =              4.999999999999999 AA, multipole_radius_free =              5.022530438398565 AA.
  | Species        2: outer_partition_radius set to              5.022530438398565 AA .
  | Species        3: Confinement radius =              4.999999999999999 AA, multipole_radius_free =              5.005414751018925 AA.
  | Species        3: outer_partition_radius set to              5.005414751018925 AA .
  | Species        4: Confinement radius =              4.999999999999999 AA, multipole_radius_free =              5.007919576009533 AA.
  | Species        4: outer_partition_radius set to              5.007919576009533 AA .
  | Original list of interatomic distances with         473 x        473 entries is created.
  | Net number of integration points:    83760
  | of which are non-zero points    :    74616
  | Numerical average free-atom electrostatic potential    :     -9.27505834 eV
  Renormalizing the initial density to the exact electron count on the 3D integration grid.
  | Initial density: Formal number of electrons (from input files) :      88.0000000000
  | Integrated number of electrons on 3D grid     :      88.0062289738
  | Charge integration error                      :       0.0062289738
  | Normalization factor for density and gradient :       0.9999292212
  Obtaining max. number of non-zero basis functions in each batch (get_n_compute_maxes).
  | Maximal number of non-zero basis functions:      426 in task     0
  | Maximal number of non-zero basis functions:      424 in task     1
  | Maximal number of non-zero basis functions:      411 in task     2
  | Maximal number of non-zero basis functions:      415 in task     3
  | Maximal number of non-zero basis functions:      420 in task     4
  | Maximal number of non-zero basis functions:      420 in task     5
  | Maximal number of non-zero basis functions:      417 in task     6
  | Maximal number of non-zero basis functions:      412 in task     7
  | Maximal number of non-zero basis functions:      415 in task     8
  | Maximal number of non-zero basis functions:      415 in task     9
  | Maximal number of non-zero basis functions:      406 in task    10
  | Maximal number of non-zero basis functions:      424 in task    11
  | Maximal number of non-zero basis functions:      418 in task    12
  | Maximal number of non-zero basis functions:      415 in task    13
  | Maximal number of non-zero basis functions:      406 in task    14
  | Maximal number of non-zero basis functions:      420 in task    15
  | Maximal number of non-zero basis functions:      425 in task    16
  | Maximal number of non-zero basis functions:      426 in task    17
  | Maximal number of non-zero basis functions:      418 in task    18
  | Maximal number of non-zero basis functions:      414 in task    19
  Allocating        0.870 MB for KS_eigenvector_complex
  Integrating Hamiltonian matrix: batch-based integration.
  Time summed over all CPUs for integration: real work        3.350 s, elapsed        3.447 s
  Integrating overlap matrix.
  Time summed over all CPUs for integration: real work        2.190 s, elapsed        2.272 s
  Decreasing sparse matrix size:
   Tolerance:  9.999999824516700E-014
   Hamiltonian matrix
  | Array has   149716 nonzero elements out of   192421 elements
  | Sparsity factor is 0.222
   Overlap matrix
  | Array has   147900 nonzero elements out of   192421 elements
  | Sparsity factor is 0.231
  New size of hamiltonian matrix:      150661

  Updating Kohn-Sham eigenvalues and eigenvectors using ELSI and the ELPA eigensolver.
  Overlap matrix is nonsingular
  | Lowest eigenvalue of overlap  :  0.95E-03
  | Highest eigenvalue of overlap :  0.86E+01
  Finished singularity check of overlap matrix
  | Time :     0.004 s
  Finished Cholesky decomposition
  | Time :     0.001 s
  Finished transformation to standard eigenproblem
  | Time :     0.001 s
  Starting LAPACK eigensolver
  Finished solving standard eigenproblem
  | Time :     0.004 s
  Finished back-transformation of eigenvectors
  | Time :     0.000 s

  Obtaining occupation numbers and chemical potential using ELSI.
  | Chemical potential (Fermi level):    -8.52732561eV
  Writing Kohn-Sham eigenvalues.
  K-point:       1 at    0.000000    0.000000    0.000000 (in units of recip. lattice)

  State    Occupation    Eigenvalue [Ha]    Eigenvalue [eV]
      1       2.00000         -88.132166        -2398.19826
      2       2.00000         -88.132166        -2398.19826
      3       2.00000         -88.132166        -2398.19826
      4       2.00000         -88.132166        -2398.19826
      5       2.00000          -7.759484         -211.14631
      6       2.00000          -7.759484         -211.14631
      7       2.00000          -7.759484         -211.14631
      8       2.00000          -7.759484         -211.14631
      9       2.00000          -5.776991         -157.19994
     10       2.00000          -5.776991         -157.19994
     11       2.00000          -5.776991         -157.19994
     12       2.00000          -5.776991         -157.19993
     13       2.00000          -5.776991         -157.19993
     14       2.00000          -5.776991         -157.19993
     15       2.00000          -5.776991         -157.19993
     16       2.00000          -5.776991         -157.19993
     17       2.00000          -5.776991         -157.19993
     18       2.00000          -5.776991         -157.19993
     19       2.00000          -5.776991         -157.19993
     20       2.00000          -5.776991         -157.19993
     21       2.00000          -1.890020          -51.43007
     22       2.00000          -1.889669          -51.42052
     23       2.00000          -1.889669          -51.42052
     24       2.00000          -1.889669          -51.42052
     25       2.00000          -1.889345          -51.41168
     26       2.00000          -1.889345          -51.41168
     27       2.00000          -1.889345          -51.41168
     28       2.00000          -1.889027          -51.40304
     29       2.00000          -0.709122          -19.29620
     30       2.00000          -0.695253          -18.91879
     31       2.00000          -0.695253          -18.91879
     32       2.00000          -0.695253          -18.91879
     33       2.00000          -0.376287          -10.23929
     34       2.00000          -0.376287          -10.23929
     35       2.00000          -0.376287          -10.23929
     36       2.00000          -0.351988           -9.57809
     37       2.00000          -0.351988           -9.57809
     38       2.00000          -0.351988           -9.57809
     39       2.00000          -0.351988           -9.57809
     40       2.00000          -0.351988           -9.57809
     41       2.00000          -0.351988           -9.57809
     42       2.00000          -0.315051           -8.57298
     43       2.00000          -0.315051           -8.57298
     44       2.00000          -0.315051           -8.57298
     45       0.00000          -0.161688           -4.39974
     46       0.00000          -0.161688           -4.39974
     47       0.00000          -0.161688           -4.39974
     48       0.00000          -0.157593           -4.28833
     49       0.00000          -0.061931           -1.68523
     50       0.00000          -0.061931           -1.68523
     51       0.00000          -0.061931           -1.68523
     52       0.00000          -0.043206           -1.17570
     53       0.00000          -0.043206           -1.17570
     54       0.00000          -0.043206           -1.17570
     55       0.00000           0.082418            2.24271
     56       0.00000           0.082418            2.24271
     57       0.00000           0.082418            2.24271
     58       0.00000           0.082418            2.24271
     59       0.00000           0.082418            2.24271
     60       0.00000           0.082418            2.24271
     61       0.00000           0.092845            2.52645
     62       0.00000           0.092845            2.52645
     63       0.00000           0.092845            2.52645
     64       0.00000           0.102898            2.80001
     65       0.00000           0.102898            2.80001
     66       0.00000           0.147968            4.02641
     67       0.00000           0.147968            4.02641
     68       0.00000           0.147968            4.02641

  What follows are estimated values for band gap, HOMO, LUMO, etc.
  | They are estimated on a discrete k-point grid and not necessarily exact.
  | For converged numbers, create a DOS and/or band structure plot on a denser k-grid.

  Highest occupied state (VBM) at     -8.57297674 eV (relative to internal zero)
  | Occupation number:      2.00000000
  | K-point:       1 at    0.000000    0.000000    0.000000 (in units of recip. lattice)

  Lowest unoccupied state (CBM) at    -4.39974469 eV (relative to internal zero)
  | Occupation number:      0.00000000
  | K-point:       1 at    0.000000    0.000000    0.000000 (in units of recip. lattice)

  ESTIMATED overall HOMO-LUMO gap:      4.17323204 eV between HOMO at k-point 1 and LUMO at k-point 1
  | This appears to be a direct band gap.
  The gap value is above 0.2 eV. Unless you are using a very sparse k-point grid,
  this system is most likely an insulator or a semiconductor.
  Calculating total energy contributions from superposition of free atom densities.

  Total energy components:
  | Sum of eigenvalues            :        -950.04094853 Ha      -25851.92954107 eV
  | XC energy correction          :        -117.13927714 Ha       -3187.52191039 eV
  | XC potential correction       :         151.22659352 Ha        4115.08498295 eV
  | Free-atom electrostatic energy:        -737.10192984 Ha      -20057.56402861 eV
  | Hartree energy correction     :           0.00000000 Ha           0.00000000 eV
  | Entropy correction            :          -0.00000000 Ha          -0.00000000 eV
  | ---------------------------
  | Total energy                  :       -1653.05556199 Ha      -44981.93049712 eV
  | Total energy, T -> 0          :       -1653.05556199 Ha      -44981.93049712 eV  <-- do not rely on this value for anything but (periodic) metals
  | Electronic free energy        :       -1653.05556199 Ha      -44981.93049712 eV

  Derived energy quantities:
  | Kinetic energy                :        1649.99883869 Ha       44898.75282407 eV
  | Electrostatic energy          :       -3185.91512353 Ha      -86693.16141080 eV
  | Energy correction for multipole
  | error in Hartree potential    :           0.00000000 Ha           0.00000000 eV
  | Sum of eigenvalues per atom                           :       -2154.32746176 eV
  | Total energy (T->0) per atom                          :       -3748.49420809 eV  <-- do not rely on this value for anything but (periodic) metals
  | Electronic free energy per atom                       :       -3748.49420809 eV
  Initialize hartree_potential_storage
  Max. number of atoms included in rho_multipole:           12

  End scf initialization - timings             :  max(cpu_time)    wall_clock(cpu1)
  | Time for scf. initialization               :        0.684 s           0.685 s
  | Boundary condition initialization          :        0.083 s           0.083 s
  | Integration                                :        0.297 s           0.297 s
  | Solution of K.-S. eqns.                    :        0.076 s           0.076 s
  | Grid partitioning                          :        0.045 s           0.045 s
  | Preloading free-atom quantities on grid    :        0.008 s           0.009 s
  | Free-atom superposition energy             :        0.026 s           0.026 s
  | Total energy evaluation                    :        0.000 s           0.001 s

  Partial memory accounting:
  | Current value for overall tracked memory usage on task 0  :           3.885 MB
  | Peak value for overall tracked memory usage on task 0     :           7.623 MB after allocating wave
  | Largest tracked array allocation on task 0 so far         :           1.539 MB  when allocating overlap_matrix
  Note:  These values currently only include a subset of arrays which are explicitly tracked.
  The "true" memory usage will be greater.
------------------------------------------------------------

------------------------------------------------------------
          Begin self-consistency iteration #    1

  Date     :  20220721, Time     :  125228.992
------------------------------------------------------------
  Evaluating new KS density using the density matrix
  Evaluating density matrix
  Time summed over all CPUs for getting density from density matrix: real work        5.179 s, elapsed        5.306 s
  Integration grid: deviation in total charge (<rho> - N_e) =  -1.477929E-12
  Pulay mixing of updated and previous charge densities.

  Evaluating partitioned Hartree potential by multipole expansion.
  | Analytical far-field extrapolation by fixed multipoles:
  | Hartree multipole sum: apparent total charge =   0.688534E-02
  Summing up the Hartree potential.
  | Estimated reciprocal-space cutoff momentum G_max:         2.52607975 bohr^-1 .
  | Reciprocal lattice points for long-range Hartree potential:     388
  Time summed over all CPUs for potential: real work        4.725 s, elapsed        4.876 s
  | RMS charge density error from multipole expansion :   0.883425E-03
  | Average real-space part of the electrostatic potential :      0.01030945 eV

  Integrating Hamiltonian matrix: batch-based integration.
  Time summed over all CPUs for integration: real work        3.221 s, elapsed        3.311 s

  Updating Kohn-Sham eigenvalues and eigenvectors using ELSI and the ELPA eigensolver.
  Finished Cholesky decomposition
  | Time :     0.001 s
  Finished transformation to standard eigenproblem
  | Time :     0.001 s
  Starting LAPACK eigensolver
  Finished solving standard eigenproblem
  | Time :     0.004 s
  Finished back-transformation of eigenvectors
  | Time :     0.000 s

  Obtaining occupation numbers and chemical potential using ELSI.
  | Chemical potential (Fermi level):    -8.45596767eV
  Writing Kohn-Sham eigenvalues.
  K-point:       1 at    0.000000    0.000000    0.000000 (in units of recip. lattice)

  State    Occupation    Eigenvalue [Ha]    Eigenvalue [eV]
      1       2.00000         -88.126832        -2398.05311
      2       2.00000         -88.126832        -2398.05311
      3       2.00000         -88.126832        -2398.05311
      4       2.00000         -88.126832        -2398.05311
      5       2.00000          -7.754312         -211.00556
      6       2.00000          -7.754312         -211.00556
      7       2.00000          -7.754312         -211.00556
      8       2.00000          -7.754312         -211.00556
      9       2.00000          -5.771760         -157.05757
     10       2.00000          -5.771760         -157.05757
     11       2.00000          -5.771760         -157.05757
     12       2.00000          -5.771760         -157.05757
     13       2.00000          -5.771760         -157.05757
     14       2.00000          -5.771760         -157.05757
     15       2.00000          -5.771760         -157.05757
     16       2.00000          -5.771760         -157.05757
     17       2.00000          -5.771760         -157.05757
     18       2.00000          -5.771760         -157.05757
     19       2.00000          -5.771760         -157.05757
     20       2.00000          -5.771760         -157.05757
     21       2.00000          -1.891302          -51.46494
     22       2.00000          -1.890952          -51.45541
     23       2.00000          -1.890952          -51.45541
     24       2.00000          -1.890952          -51.45541
     25       2.00000          -1.890628          -51.44660
     26       2.00000          -1.890628          -51.44660
     27       2.00000          -1.890628          -51.44660
     28       2.00000          -1.890312          -51.43800
     29       2.00000          -0.706214          -19.21705
     30       2.00000          -0.692158          -18.83459
     31       2.00000          -0.692158          -18.83459
     32       2.00000          -0.692158          -18.83459
     33       2.00000          -0.374317          -10.18569
     34       2.00000          -0.374317          -10.18569
     35       2.00000          -0.374317          -10.18569
     36       2.00000          -0.349795           -9.51840
     37       2.00000          -0.349795           -9.51840
     38       2.00000          -0.349795           -9.51840
     39       2.00000          -0.349795           -9.51840
     40       2.00000          -0.349795           -9.51840
     41       2.00000          -0.349795           -9.51840
     42       2.00000          -0.312426           -8.50153
     43       2.00000          -0.312426           -8.50153
     44       2.00000          -0.312426           -8.50153
     45       0.00000          -0.161388           -4.39158
     46       0.00000          -0.161388           -4.39158
     47       0.00000          -0.161388           -4.39158
     48       0.00000          -0.156930           -4.27027
     49       0.00000          -0.061290           -1.66780
     50       0.00000          -0.061290           -1.66780
     51       0.00000          -0.061290           -1.66780
     52       0.00000          -0.042504           -1.15660
     53       0.00000          -0.042504           -1.15660
     54       0.00000          -0.042504           -1.15660
     55       0.00000           0.083422            2.27002
     56       0.00000           0.083422            2.27002
     57       0.00000           0.083422            2.27002
     58       0.00000           0.083422            2.27002
     59       0.00000           0.083422            2.27002
     60       0.00000           0.083422            2.27002
     61       0.00000           0.094300            2.56605
     62       0.00000           0.094300            2.56605
     63       0.00000           0.094300            2.56605
     64       0.00000           0.104146            2.83397
     65       0.00000           0.104146            2.83397
     66       0.00000           0.149340            4.06376
     67       0.00000           0.149340            4.06376
     68       0.00000           0.149340            4.06376

  What follows are estimated values for band gap, HOMO, LUMO, etc.
  | They are estimated on a discrete k-point grid and not necessarily exact.
  | For converged numbers, create a DOS and/or band structure plot on a denser k-grid.

  Highest occupied state (VBM) at     -8.50153219 eV (relative to internal zero)
  | Occupation number:      2.00000000
  | K-point:       1 at    0.000000    0.000000    0.000000 (in units of recip. lattice)

  Lowest unoccupied state (CBM) at    -4.39158115 eV (relative to internal zero)
  | Occupation number:      0.00000000
  | K-point:       1 at    0.000000    0.000000    0.000000 (in units of recip. lattice)

  ESTIMATED overall HOMO-LUMO gap:      4.10995104 eV between HOMO at k-point 1 and LUMO at k-point 1
  | This appears to be a direct band gap.
  The gap value is above 0.2 eV. Unless you are using a very sparse k-point grid,
  this system is most likely an insulator or a semiconductor.

  Total energy components:
  | Sum of eigenvalues            :        -949.77497722 Ha      -25844.69209351 eV
  | XC energy correction          :        -117.16302456 Ha       -3188.16811055 eV
  | XC potential correction       :         151.25730605 Ha        4115.92071338 eV
  | Free-atom electrostatic energy:        -737.10192984 Ha      -20057.56402861 eV
  | Hartree energy correction     :          -0.26590788 Ha          -7.23572159 eV
  | Entropy correction            :          -0.00000000 Ha          -0.00000000 eV
  | ---------------------------
  | Total energy                  :       -1653.04853345 Ha      -44981.73924089 eV
  | Total energy, T -> 0          :       -1653.04853345 Ha      -44981.73924089 eV  <-- do not rely on this value for anything but (periodic) metals
  | Electronic free energy        :       -1653.04853345 Ha      -44981.73924089 eV

  Derived energy quantities:
  | Kinetic energy                :        1649.98553358 Ha       44898.39077360 eV
  | Electrostatic energy          :       -3185.87104247 Ha      -86691.96190394 eV
  | Energy correction for multipole
  | error in Hartree potential    :           0.00099376 Ha           0.02704164 eV
  | Sum of eigenvalues per atom                           :       -2153.72434113 eV
  | Total energy (T->0) per atom                          :       -3748.47827007 eV  <-- do not rely on this value for anything but (periodic) metals
  | Electronic free energy per atom                       :       -3748.47827007 eV

  Self-consistency convergence accuracy:
  | Change of charge density      :  0.1983E+00
  | Change of sum of eigenvalues  :  0.7237E+01 eV
  | Change of total energy        :  0.1913E+00 eV

  End self-consistency iteration #     1       :  max(cpu_time)    wall_clock(cpu1)
  | Time for this iteration                    :        0.935 s           0.935 s
  | Charge density update                      :        0.278 s           0.279 s
  | Density mixing & preconditioning           :        0.159 s           0.158 s
  | Hartree multipole update                   :        0.002 s           0.002 s
  | Hartree multipole summation                :        0.268 s           0.268 s
  | Integration                                :        0.170 s           0.170 s
  | Solution of K.-S. eqns.                    :        0.056 s           0.056 s
  | Total energy evaluation                    :        0.000 s           0.001 s

  Partial memory accounting:
  | Current value for overall tracked memory usage on task 0  :           3.885 MB
  | Peak value for overall tracked memory usage on task 0     :           8.220 MB after allocating gradient_basis_wave
  | Largest tracked array allocation on task 0 so far         :           1.539 MB  when allocating overlap_matrix
  Note:  These values currently only include a subset of arrays which are explicitly tracked.
  The "true" memory usage will be greater.
------------------------------------------------------------

------------------------------------------------------------
          Begin self-consistency iteration #    2

  Date     :  20220721, Time     :  125229.928
------------------------------------------------------------
  Evaluating new KS density using the density matrix
  Evaluating density matrix
  Time summed over all CPUs for getting density from density matrix: real work        5.128 s, elapsed        5.292 s
  Integration grid: deviation in total charge (<rho> - N_e) =  -1.620037E-12
  Pulay mixing of updated and previous charge densities.

  Evaluating partitioned Hartree potential by multipole expansion.
  | Analytical far-field extrapolation by fixed multipoles:
  | Hartree multipole sum: apparent total charge =   0.144287E-01
  Summing up the Hartree potential.
  Time summed over all CPUs for potential: real work        5.272 s, elapsed        5.428 s
  | RMS charge density error from multipole expansion :   0.111226E-01
  | Average real-space part of the electrostatic potential :      0.17932528 eV

  Integrating Hamiltonian matrix: batch-based integration.
  Time summed over all CPUs for integration: real work        3.281 s, elapsed        3.357 s

  Updating Kohn-Sham eigenvalues and eigenvectors using ELSI and the ELPA eigensolver.
  Finished Cholesky decomposition
  | Time :     0.001 s
  Finished transformation to standard eigenproblem
  | Time :     0.001 s
  Starting LAPACK eigensolver
  Finished solving standard eigenproblem
  | Time :     0.004 s
  Finished back-transformation of eigenvectors
  | Time :     0.000 s

  Obtaining occupation numbers and chemical potential using ELSI.
  | Chemical potential (Fermi level):    -7.59207220eV
  What follows are estimated values for band gap, HOMO, LUMO, etc.
  | They are estimated on a discrete k-point grid and not necessarily exact.
  | For converged numbers, create a DOS and/or band structure plot on a denser k-grid.

  Highest occupied state (VBM) at     -7.63768508 eV (relative to internal zero)
  | Occupation number:      2.00000000
  | K-point:       1 at    0.000000    0.000000    0.000000 (in units of recip. lattice)

  Lowest unoccupied state (CBM) at    -4.25371685 eV (relative to internal zero)
  | Occupation number:      0.00000000
  | K-point:       1 at    0.000000    0.000000    0.000000 (in units of recip. lattice)

  ESTIMATED overall HOMO-LUMO gap:      3.38396823 eV between HOMO at k-point 1 and LUMO at k-point 1
  | This appears to be a direct band gap.
  The gap value is above 0.2 eV. Unless you are using a very sparse k-point grid,
  this system is most likely an insulator or a semiconductor.

  Checking to see if s.c.f. parameters should be adjusted.
  The system likely has a gap. Increased the default Pulay mixing parameter (charge_mix_param). Value:   0.200000 .
  Kept the default occupation width. Value:   0.010000 eV.

  Total energy components:
  | Sum of eigenvalues            :        -945.99578049 Ha      -25741.85491830 eV
  | XC energy correction          :        -117.44162742 Ha       -3195.74928014 eV
  | XC potential correction       :         151.61643337 Ha        4125.69306487 eV
  | Free-atom electrostatic energy:        -737.10192984 Ha      -20057.56402861 eV
  | Hartree energy correction     :          -4.08523894 Ha        -111.16500754 eV
  | Entropy correction            :          -0.00000000 Ha          -0.00000000 eV
  | ---------------------------
  | Total energy                  :       -1653.00814333 Ha      -44980.64016972 eV
  | Total energy, T -> 0          :       -1653.00814333 Ha      -44980.64016972 eV  <-- do not rely on this value for anything but (periodic) metals
  | Electronic free energy        :       -1653.00814333 Ha      -44980.64016972 eV

  Derived energy quantities:
  | Kinetic energy                :        1651.65787347 Ha       44943.89745743 eV
  | Electrostatic energy          :       -3187.22438937 Ha      -86728.78834700 eV
  | Energy correction for multipole
  | error in Hartree potential    :           0.01208840 Ha           0.32894206 eV
  | Sum of eigenvalues per atom                           :       -2145.15457652 eV
  | Total energy (T->0) per atom                          :       -3748.38668081 eV  <-- do not rely on this value for anything but (periodic) metals
  | Electronic free energy per atom                       :       -3748.38668081 eV

  Self-consistency convergence accuracy:
  | Change of charge density      :  0.1837E+00
  | Change of sum of eigenvalues  :  0.1028E+03 eV
  | Change of total energy        :  0.1099E+01 eV

  End self-consistency iteration #     2       :  max(cpu_time)    wall_clock(cpu1)
  | Time for this iteration                    :        0.949 s           0.949 s
  | Charge density update                      :        0.277 s           0.276 s
  | Density mixing & preconditioning           :        0.166 s           0.166 s
  | Hartree multipole update                   :        0.001 s           0.002 s
  | Hartree multipole summation                :        0.275 s           0.274 s
  | Integration                                :        0.172 s           0.172 s
  | Solution of K.-S. eqns.                    :        0.056 s           0.057 s
  | Total energy evaluation                    :        0.001 s           0.000 s

  Partial memory accounting:
  | Current value for overall tracked memory usage on task 0  :           3.885 MB
  | Peak value for overall tracked memory usage on task 0     :           8.220 MB after allocating gradient_basis_wave
  | Largest tracked array allocation on task 0 so far         :           1.539 MB  when allocating overlap_matrix
  Note:  These values currently only include a subset of arrays which are explicitly tracked.
  The "true" memory usage will be greater.
------------------------------------------------------------

------------------------------------------------------------
          Begin self-consistency iteration #    3

  Date     :  20220721, Time     :  125230.877
------------------------------------------------------------
  Evaluating new KS density using the density matrix
  Evaluating density matrix
  Time summed over all CPUs for getting density from density matrix: real work        5.270 s, elapsed        5.555 s
  Integration grid: deviation in total charge (<rho> - N_e) =  -1.548983E-12
  Pulay mixing of updated and previous charge densities.

  Evaluating partitioned Hartree potential by multipole expansion.
  | Analytical far-field extrapolation by fixed multipoles:
  | Hartree multipole sum: apparent total charge =   0.159877E-01
  Summing up the Hartree potential.
[...]
  atom #    6
   Hellmann-Feynman              : -0.857759E-13 -0.112893E-12  0.393600E-12
   Ionic forces                  :  0.000000E+00  0.000000E+00  0.000000E+00
   Multipole                     : -0.305242E-14 -0.176873E-14 -0.147673E-14
   Pulay + GGA                   :  0.000000E+00  0.000000E+00  0.000000E+00
   ----------------------------------------------------------------
   Total forces(   6)            : -0.888284E-13 -0.114662E-12  0.392123E-12
  atom #    7
   Hellmann-Feynman              : -0.203444E-12  0.341161E-12 -0.558207E-12
   Ionic forces                  :  0.000000E+00  0.000000E+00  0.000000E+00
   Multipole                     : -0.149694E-14 -0.423087E-14 -0.135407E-14
   Pulay + GGA                   :  0.000000E+00  0.000000E+00  0.000000E+00
   ----------------------------------------------------------------
   Total forces(   7)            : -0.204941E-12  0.336930E-12 -0.559561E-12
  atom #    8
   Hellmann-Feynman              : -0.149428E-12 -0.632860E-12 -0.290844E-13
   Ionic forces                  :  0.000000E+00  0.000000E+00  0.000000E+00
   Multipole                     : -0.107462E-14  0.198268E-14 -0.237991E-14
   Pulay + GGA                   :  0.000000E+00  0.000000E+00  0.000000E+00
   ----------------------------------------------------------------
   Total forces(   8)            : -0.150502E-12 -0.630878E-12 -0.314644E-13
  atom #    9
   Hellmann-Feynman              :  0.792604E-11  0.274051E-11  0.665416E-11
   Ionic forces                  :  0.000000E+00  0.000000E+00  0.000000E+00
   Multipole                     :  0.162511E-12  0.106272E-11 -0.911421E-12
   Pulay + GGA                   :  0.000000E+00  0.000000E+00  0.000000E+00
   ----------------------------------------------------------------
   Total forces(   9)            :  0.808855E-11  0.380323E-11  0.574274E-11
  atom #   10
   Hellmann-Feynman              : -0.427559E-11  0.283106E-08  0.286019E-08
   Ionic forces                  :  0.000000E+00  0.000000E+00  0.000000E+00
   Multipole                     :  0.129556E-11  0.365500E-12  0.136569E-11
   Pulay + GGA                   :  0.000000E+00  0.000000E+00  0.000000E+00
   ----------------------------------------------------------------
   Total forces(  10)            : -0.298003E-11  0.283143E-08  0.286155E-08
  atom #   11
   Hellmann-Feynman              :  0.283743E-08  0.155396E-10  0.284910E-08
   Ionic forces                  :  0.000000E+00  0.000000E+00  0.000000E+00
   Multipole                     :  0.184539E-11 -0.169391E-12 -0.666083E-12
   Pulay + GGA                   :  0.000000E+00  0.000000E+00  0.000000E+00
   ----------------------------------------------------------------
   Total forces(  11)            :  0.283928E-08  0.153702E-10  0.284843E-08
  atom #   12
   Hellmann-Feynman              :  0.283755E-08  0.283379E-08  0.913742E-11
   Ionic forces                  :  0.000000E+00  0.000000E+00  0.000000E+00
   Multipole                     : -0.776217E-12  0.153939E-12  0.518281E-12
   Pulay + GGA                   :  0.000000E+00  0.000000E+00  0.000000E+00
   ----------------------------------------------------------------
   Total forces(  12)            :  0.283677E-08  0.283395E-08  0.965570E-11


  Self-consistency convergence accuracy:
  | Change of charge density      :  0.2534E-07
  | Change of sum of eigenvalues  : -0.1011E-04 eV
  | Change of total energy        :  0.7480E-08 eV
  | Change of forces              :  0.2010E-08 eV/A

  Writing Kohn-Sham eigenvalues.
  K-point:       1 at    0.000000    0.000000    0.000000 (in units of recip. lattice)

  State    Occupation    Eigenvalue [Ha]    Eigenvalue [eV]
      1       2.00000         -88.067064        -2396.42674
      2       2.00000         -88.067064        -2396.42674
      3       2.00000         -88.067064        -2396.42674
      4       2.00000         -88.067064        -2396.42674
      5       2.00000          -7.699071         -209.50239
      6       2.00000          -7.699071         -209.50239
      7       2.00000          -7.699071         -209.50239
      8       2.00000          -7.699071         -209.50239
      9       2.00000          -5.716035         -155.54123
     10       2.00000          -5.716035         -155.54123
     11       2.00000          -5.716035         -155.54123
     12       2.00000          -5.716035         -155.54123
     13       2.00000          -5.716035         -155.54123
     14       2.00000          -5.716035         -155.54123
     15       2.00000          -5.716035         -155.54123
     16       2.00000          -5.716035         -155.54123
     17       2.00000          -5.716035         -155.54123
     18       2.00000          -5.716035         -155.54123
     19       2.00000          -5.716035         -155.54123
     20       2.00000          -5.716035         -155.54123
     21       2.00000          -1.910844          -51.99671
     22       2.00000          -1.910513          -51.98770
     23       2.00000          -1.910513          -51.98770
     24       2.00000          -1.910513          -51.98770
     25       2.00000          -1.910204          -51.97930
     26       2.00000          -1.910204          -51.97930
     27       2.00000          -1.910204          -51.97930
     28       2.00000          -1.909913          -51.97137
     29       2.00000          -0.666867          -18.14639
     30       2.00000          -0.650287          -17.69520
     31       2.00000          -0.650287          -17.69520
     32       2.00000          -0.650287          -17.69520
     33       2.00000          -0.347606           -9.45885
     34       2.00000          -0.347606           -9.45885
     35       2.00000          -0.347606           -9.45885
     36       2.00000          -0.320310           -8.71608
     37       2.00000          -0.320310           -8.71608
     38       2.00000          -0.320310           -8.71608
     39       2.00000          -0.320310           -8.71608
     40       2.00000          -0.320310           -8.71608
     41       2.00000          -0.320310           -8.71608
     42       2.00000          -0.277172           -7.54224
     43       2.00000          -0.277172           -7.54224
     44       2.00000          -0.277172           -7.54224
     45       0.00000          -0.150276           -4.08922
     46       0.00000          -0.150276           -4.08922
     47       0.00000          -0.150276           -4.08922
     48       0.00000          -0.141018           -3.83729
     49       0.00000          -0.050713           -1.37997
     50       0.00000          -0.050713           -1.37997
     51       0.00000          -0.050713           -1.37997
     52       0.00000          -0.030991           -0.84330
     53       0.00000          -0.030991           -0.84330
     54       0.00000          -0.030991           -0.84330
     55       0.00000           0.102199            2.78097
     56       0.00000           0.102199            2.78097
     57       0.00000           0.102199            2.78097
     58       0.00000           0.102199            2.78097
     59       0.00000           0.102199            2.78097
     60       0.00000           0.102199            2.78097
     61       0.00000           0.118951            3.23683
     62       0.00000           0.118951            3.23683
     63       0.00000           0.118951            3.23683
     64       0.00000           0.121361            3.30241
     65       0.00000           0.121361            3.30241
     66       0.00000           0.167109            4.54726
     67       0.00000           0.167109            4.54726
     68       0.00000           0.167109            4.54726

  What follows are estimated values for band gap, HOMO, LUMO, etc.
  | They are estimated on a discrete k-point grid and not necessarily exact.
  | For converged numbers, create a DOS and/or band structure plot on a denser k-grid.

  Highest occupied state (VBM) at     -7.54223593 eV (relative to internal zero)
  | Occupation number:      2.00000000
  | K-point:       1 at    0.000000    0.000000    0.000000 (in units of recip. lattice)

  Lowest unoccupied state (CBM) at    -4.08921627 eV (relative to internal zero)
  | Occupation number:      0.00000000
  | K-point:       1 at    0.000000    0.000000    0.000000 (in units of recip. lattice)

  ESTIMATED overall HOMO-LUMO gap:      3.45301966 eV between HOMO at k-point 1 and LUMO at k-point 1
  | This appears to be a direct band gap.
  The gap value is above 0.2 eV. Unless you are using a very sparse k-point grid,
  this system is most likely an insulator or a semiconductor.

  Self-consistency cycle converged.

  End self-consistency iteration #    15       :  max(cpu_time)    wall_clock(cpu1)
  | Time for this iteration                    :        1.363 s           1.363 s
  | Charge density & force component update    :        0.291 s           0.291 s
  | Density mixing                             :        0.002 s           0.001 s
  | Hartree multipole update                   :        0.001 s           0.002 s
  | Hartree multipole summation                :        0.839 s           0.839 s
  | Integration                                :        0.171 s           0.171 s
  | Solution of K.-S. eqns.                    :        0.057 s           0.057 s
  | Total energy evaluation                    :        0.001 s           0.002 s

  Partial memory accounting:
  | Current value for overall tracked memory usage on task 0  :           3.885 MB
  | Peak value for overall tracked memory usage on task 0     :           8.220 MB after allocating gradient_basis_wave
  | Largest tracked array allocation on task 0 so far         :           1.539 MB  when allocating overlap_matrix
  Note:  These values currently only include a subset of arrays which are explicitly tracked.
  The "true" memory usage will be greater.
------------------------------------------------------------
  |------------------------------------------
  | Final ELSI Output
  |------------------------------------------
  | Number of basis functions :          160
  | Number of electrons       :         88.0
  | Number of states          :           68
  | Solver                    :         ELPA
  | Parallel mode             :  SINGLE_PROC
  | Matrix format             :  BLACS_DENSE
  |------------------------------------------
  | ELSI Project (c)  elsi-interchange.org
  |------------------------------------------
  Removing unitary transformations (pure translations, rotations) from forces on atoms.
  Atomic forces before filtering:
  | Net force on center of mass :   0.568070E-08  0.568354E-08  0.572433E-08 eV/A
  Atomic forces after filtering:
  | Net force on center of mass :   0.664615E-24 -0.199384E-23 -0.265846E-23 eV/A

  Energy and forces in a compact form:
  | Total energy uncorrected      :         -0.449806850607713E+05 eV
  | Total energy corrected        :         -0.449806850607713E+05 eV  <-- do not rely on this value for anything but (periodic) metals
  | Electronic free energy        :         -0.449806850607713E+05 eV
  Total atomic forces (unitary forces cleaned) [eV/Ang]:
  |   1         -0.473290080523926E-09         -0.473918596506003E-09         -0.476869215125342E-09
  |   2         -0.473315152943399E-09         -0.473563835604399E-09         -0.477408912830602E-09
  |   3         -0.473443157408226E-09         -0.474162450083650E-09         -0.476929743285748E-09
  |   4         -0.473437061572059E-09         -0.473367705910182E-09         -0.477546858200154E-09
  |   5         -0.473487528482815E-09         -0.473734822504996E-09         -0.477237732743617E-09
  |   6         -0.473480846707228E-09         -0.473742620542090E-09         -0.476635587858985E-09
  |   7         -0.473596959294374E-09         -0.473291028752766E-09         -0.477587271589846E-09
  |   8         -0.473542520671334E-09         -0.474258836598190E-09         -0.477059175320115E-09
  |   9         -0.465303467059547E-09         -0.469824730006426E-09         -0.471284969956149E-09
  |  10         -0.476372049477906E-09          0.235780174324423E-08          0.238452514416509E-08
  |  11          0.236588760371923E-08         -0.458257779316990E-09          0.237140633474556E-08
  |  12          0.236338122042158E-08          0.236032066258146E-08         -0.467372012000096E-09

  ------------------------------------ 
  Start decomposition of the XC Energy 
  ------------------------------------ 
  X and C from original XC functional choice 
  Hartree-Fock Energy :          0.000000000 Ha              0.000000000 eV
  X Energy            :       -114.275382046 Ha          -3109.591359748 eV
  C Energy            :         -3.108254550 Ha            -84.579909682 eV
  Total XC Energy     :       -117.383636596 Ha          -3194.171269430 eV
  ------------------------------------ 
  LDA X and C from self-consistent density 
  X Energy LDA        :       -105.352731151 Ha          -2866.793675488 eV
  C Energy LDA        :         -6.389356576 Ha           -173.863238485 eV
  ------------------------------------ 
  End decomposition of the XC Energy 
  ------------------------------------ 

------------------------------------------------------------

------------------------------------------------------------------------------
  Final output of selected total energy values:

  The following output summarizes some interesting total energy values
  at the end of a run (AFTER all relaxation, molecular dynamics, etc.).

  | Total energy of the DFT / Hartree-Fock s.c.f. calculation      :         -44980.685060771 eV
  | Final zero-broadening corrected energy (caution - metals only) :         -44980.685060771 eV
  | For reference only, the value of 1 Hartree used in FHI-aims is :             27.211384500 eV

  Before relying on these values, please be sure to understand exactly which
  total energy value is referred to by a given number. Different objects may
  all carry the same name 'total energy'. Definitions:

  Total energy of the DFT / Hartree-Fock s.c.f. calculation:
  | Note that this energy does not include ANY quantities calculated after the
  | s.c.f. cycle, in particular not ANY RPA, MP2, etc. many-body perturbation terms.

  Final zero-broadening corrected energy:
  | For metallic systems only, a broadening of the occupation numbers at the Fermi
  | level can be extrapolated back to zero broadening by an electron-gas inspired
  | formula. For all systems that are not real metals, this value can be
  | meaningless and should be avoided.

------------------------------------------------------------------------------
  Methods described in the following list of references were used in this FHI-aims run.
  If you publish the results, please make sure to cite these reference if they apply.
  FHI-aims is an academic code, and for our developers (often, Ph.D. students
  and postdocs), scientific credit in the community is essential.
  Thank you for helping us!

  For any use of FHI-aims, please cite:

    Volker Blum, Ralf Gehrke, Felix Hanke, Paula Havu, Ville Havu,
    Xinguo Ren, Karsten Reuter, and Matthias Scheffler
    'Ab initio molecular simulations with numeric atom-centered orbitals'
    Computer Physics Communications 180, 2175-2196 (2009)
    http://dx.doi.org/10.1016/j.cpc.2009.06.022


  The provided symmetry information was generated with SPGlib:

    Atsushi Togo, Yusuke Seto, Dimitar Pashov
    SPGlib 1.7.3 obtained from http://spglib.sourceforge.net
    Copyright (C) 2008 Atsushi Togo


  The scalable eigensolver library ELPA was used in your run.
  ELPA is essential especially for large systems on hundreds or thousands of CPUs.
  For ELPA, please cite:

    Andreas Marek, Volker Blum, Rainer Johanni, Ville Havu, Bruno Lang,
    Thomas Auckenthaler, Alexander Heinecke, Hans-Joachim Bungartz, and Hermann Lederer,
    'The ELPA Library - Scalable Parallel Eigenvalue Solutions
    for Electronic Structure Theory and Computational Science'
    The Journal of Physics: Condensed Matter 26, 213201 (2014).
    http://dx.doi.org/10.1088/0953-8984/26/21/213201


  The ELSI infrastructure was used in your run to solve the Kohn-Sham electronic structure.
  Please check out http://elsi-interchange.org to learn more.
  If scalability is important for your project, please acknowledge ELSI by citing:

    V. W-z. Yu, F. Corsetti, A. Garcia, W. P. Huhn, M. Jacquelin, W. Jia,
    B. Lange, L. Lin, J. Lu, W. Mi, A. Seifitokaldani, A. Vazquez-Mayagoitia,
    C. Yang, H. Yang, and V. Blum
    'ELSI: A unified software interface for Kohn-Sham electronic structure solvers'
    Computer Physics Communications 222, 267-285 (2018).
    http://dx.doi.org/10.1016/j.cpc.2017.09.007


  For the real-space grid partitioning and parallelization used in this calculation, please cite:

    Ville Havu, Volker Blum, Paula Havu, and Matthias Scheffler,
    'Efficient O(N) integration for all-electron electronic structure calculation'
    'using numerically tabulated basis functions'
    Journal of Computational Physics 228, 8367-8379 (2009).
    http://dx.doi.org/10.1016/j.jcp.2009.08.008

  Of course, there are many other important community references, e.g., those cited in the
  above references. Our list is limited to references that describe implementations in the
  FHI-aims code. The reason is purely practical (length of this list) - please credit others as well.

------------------------------------------------------------
          Leaving FHI-aims.
          Date     :  20220721, Time     :  125243.879

          Computational steps:
          | Number of self-consistency cycles          :           15
          | Number of SCF (re)initializations          :            1

          Detailed time accounting                     :  max(cpu_time)    wall_clock(cpu1)
          | Total time                                 :       16.152 s          16.160 s
          | Preparation time                           :        0.411 s           0.406 s
          | Boundary condition initalization           :        0.083 s           0.083 s
          | Grid partitioning                          :        0.045 s           0.045 s
          | Preloading free-atom quantities on grid    :        0.008 s           0.009 s
          | Free-atom superposition energy             :        0.026 s           0.026 s
          | Total time for integrations                :        2.851 s           2.849 s
          | Total time for solution of K.-S. equations :        0.936 s           0.940 s
          | Total time for density & force components  :        4.342 s           4.342 s
          | Total time for mixing & preconditioning    :        2.264 s           2.261 s
          | Total time for Hartree multipole update    :        0.022 s           0.025 s
          | Total time for Hartree multipole sum       :        4.789 s           4.790 s
          | Total time for total energy evaluation     :        0.005 s           0.012 s

          Partial memory accounting:
          | Residual value for overall tracked memory usage across tasks :           0.000 MB (should be 0.000 MB)
          | Peak values for overall tracked memory usage (after allocating gradient_basis_wave):
          |   Minimum:        7.952 MB (on task 15)
          |   Maximum:        8.367 MB (on task  2)
          |   Average:        8.208 MB
          | Largest tracked array allocation (overlap_matrix):
          |   Minimum:        1.539 MB (on task  1)
          |   Maximum:        1.539 MB (on task  1)
          |   Average:        1.539 MB
          Note:  These values currently only include a subset of arrays which are explicitly tracked.
          The "true" memory usage will be greater.

          Have a nice day.
------------------------------------------------------------
