  MPI-parallelism will be employed.
------------------------------------------------------------
          Invoking FHI-aims ...
          Version 171221_1
          Compiled on 2020/11/22 at 19:48:33 on host core401.

          When using FHI-aims, please cite the following reference:

          Volker Blum, Ralf Gehrke, Felix Hanke, Paula Havu,
          Ville Havu, Xinguo Ren, Karsten Reuter, and Matthias Scheffler,
          'Ab Initio Molecular Simulations with Numeric Atom-Centered Orbitals',
          Computer Physics Communications 180, 2175-2196 (2009)

          For any questions about FHI-aims, please visit the aimsclub website
          with its forums and wiki. Contributions to both the forums and the
          wiki are warmly encouraged - they are for you, and everyone is welcome there.

------------------------------------------------------------



  Date     :  20220226, Time     :  222945.499
  Time zero on CPU 1             :   0.225460000000000E-01  s.
  Internal wall clock time zero  :           415146585.499  s.

  FHI-aims created a unique identifier for this run for later identification
  aims_uuid : 7816A515-5BF3-4F6F-AD3D-B9B035C9F9BD

  Using        1 parallel tasks.
  Task        0 on host core401 reporting.

  Performing system and environment tests:
  *** Environment variable OMP_NUM_THREADS is not set
  *** For performance reasons you might want to set it to 1
  | Maximum stacksize for task 0: unlimited
  | Current stacksize for task 0: unlimited
  | Checking for scalapack...
  | Testing pdtran()...
  MPI-parallelism will be employed.
------------------------------------------------------------
          Invoking FHI-aims ...
          Version 171221_1
  MPI-parallelism will be employed.
          Compiled on 2020/11/22 at 19:48:33 on host core401.

          When using FHI-aims, please cite the following reference:

------------------------------------------------------------
          Invoking FHI-aims ...
          Version 171221_1
          Compiled on 2020/11/22 at 19:48:33 on host core401.

          When using FHI-aims, please cite the following reference:

          Volker Blum, Ralf Gehrke, Felix Hanke, Paula Havu,
          Ville Havu, Xinguo Ren, Karsten Reuter, and Matthias Scheffler,
          'Ab Initio Molecular Simulations with Numeric Atom-Centered Orbitals',
          Computer Physics Communications 180, 2175-2196 (2009)

          For any questions about FHI-aims, please visit the aimsclub website
          with its forums and wiki. Contributions to both the forums and the
          wiki are warmly encouraged - they are for you, and everyone is welcome there.

------------------------------------------------------------


          Volker Blum, Ralf Gehrke, Felix Hanke, Paula Havu,
          Ville Havu, Xinguo Ren, Karsten Reuter, and Matthias Scheffler,
          'Ab Initio Molecular Simulations with Numeric Atom-Centered Orbitals',
          Computer Physics Communications 180, 2175-2196 (2009)

          For any questions about FHI-aims, please visit the aimsclub website
          with its forums and wiki. Contributions to both the forums and the
          wiki are warmly encouraged - they are for you, and everyone is welcome there.

------------------------------------------------------------




  Date     :  20220226, Time     :  222945.501
  Date     :  20220226, Time     :  222945.501
  Time zero on CPU 1             :   0.224610000000000E-01  s.
  Internal wall clock time zero  :           415146585.501  s.
  Time zero on CPU 1             :   0.243370000000000E-01  s.
  Internal wall clock time zero  :           415146585.501  s.


  FHI-aims created a unique identifier for this run for later identification
  FHI-aims created a unique identifier for this run for later identification
  MPI-parallelism will be employed.
------------------------------------------------------------
  aims_uuid : F65E4926-3B55-4453-AA43-68F989ADF631

  Using        1 parallel tasks.
  Task        0 on host core401 reporting.

  Performing system and environment tests:
  *** Environment variable OMP_NUM_THREADS is not set
  *** For performance reasons you might want to set it to 1
  | Maximum stacksize for task 0: unlimited
  aims_uuid : ECD47C8F-9D85-4032-ABC1-24EC00AFF020

  | Current stacksize for task 0: unlimited
  | Checking for scalapack...
  Using        1 parallel tasks.
  | Testing pdtran()...
  Task        0 on host core401 reporting.

  Performing system and environment tests:
  *** Environment variable OMP_NUM_THREADS is not set
  *** For performance reasons you might want to set it to 1
  | Maximum stacksize for task 0: unlimited
  | Current stacksize for task 0: unlimited
  | Checking for scalapack...
          Invoking FHI-aims ...
  | Testing pdtran()...
          Version 171221_1
          Compiled on 2020/11/22 at 19:48:33 on host core401.

          When using FHI-aims, please cite the following reference:

          Volker Blum, Ralf Gehrke, Felix Hanke, Paula Havu,
          Ville Havu, Xinguo Ren, Karsten Reuter, and Matthias Scheffler,
          'Ab Initio Molecular Simulations with Numeric Atom-Centered Orbitals',
          Computer Physics Communications 180, 2175-2196 (2009)

          For any questions about FHI-aims, please visit the aimsclub website
          with its forums and wiki. Contributions to both the forums and the
          wiki are warmly encouraged - they are for you, and everyone is welcome there.

------------------------------------------------------------



  Date     :  20220226, Time     :  222945.503
  Time zero on CPU 1             :   0.239080000000000E-01  s.
  Internal wall clock time zero  :           415146585.503  s.

  FHI-aims created a unique identifier for this run for later identification
  aims_uuid : 972F695D-2D3B-4585-A95E-9E076562DC72

  Using        1 parallel tasks.
  Task        0 on host core401 reporting.

  Performing system and environment tests:
  *** Environment variable OMP_NUM_THREADS is not set
  *** For performance reasons you might want to set it to 1
  | Maximum stacksize for task 0: unlimited
  | Current stacksize for task 0: unlimited
  | Checking for scalapack...
  | Testing pdtran()...
  | All pdtran() tests passed.

  Obtaining array dimensions for all initial allocations:
  
  -----------------------------------------------------------------------
  Parsing control.in (first pass over file, find array dimensions only).
  The contents of control.in will be repeated verbatim below
  unless switched off by setting 'verbatim_writeout .false.' .
  in the first line of control.in .
  -----------------------------------------------------------------------
  
  #===============================================================================
  # FHI-aims file: ./control.in
  # Created using the Atomic Simulation Environment (ASE)
  # Wed Mar 24 12:41:28 2021
  #===============================================================================
  xc                                 pbe
  sc_accuracy_rho                    1e-08
  sc_accuracy_forces                 1e-06
  friction_temperature               300.0
  k_grid                             5 5 5
  ################################################################################
  #
  #  FHI-aims code project
  # Volker Blum, Fritz Haber Institute Berlin, 2009
  #
  | All pdtran() tests passed.
  #  Suggested "tight" defaults for Li atom (to be pasted into control.in file)
  #
  #  2016/03/22: Increased cutoff radius to 5.0 AA (Xinguo Ren, Aug 15, 2015)

  Obtaining array dimensions for all initial allocations:
  
  -----------------------------------------------------------------------
  Parsing control.in (first pass over file, find array dimensions only).
  The contents of control.in will be repeated verbatim below
  unless switched off by setting 'verbatim_writeout .false.' .
  in the first line of control.in .
  -----------------------------------------------------------------------
  
  #
  ################################################################################
    species        Li
  #     global species definitions
      nucleus             3
      mass                6.941
  #
      l_hartree           6
  #
      cut_pot             5.0  2.0  1.0
      basis_dep_cutoff    1e-4
  #
      radial_base         29 7.0
      radial_multiplier   2
      angular_grids       specified
        division   0.4484  110
        division   0.5659  194
        division   0.6315  302
        division   0.6662  434
  #      division   0.8186  590
  | All pdtran() tests passed.
  #      division   0.9037  770
  #      division   6.2760  974
  #      outer_grid   974
        outer_grid  434
  ################################################################################
  #
  #  Definition of "minimal" basis
  #
  ################################################################################
  #     valence basis states
      valence      2  s   1.
  #     ion occupancy
      ion_occ      1  s   2.

  Obtaining array dimensions for all initial allocations:
  
  -----------------------------------------------------------------------
  Parsing control.in (first pass over file, find array dimensions only).
  The contents of control.in will be repeated verbatim below
  unless switched off by setting 'verbatim_writeout .false.' .
  in the first line of control.in .
  -----------------------------------------------------------------------
  
  ################################################################################
  #
  #  Suggested additional basis functions. For production calculations,
  #  uncomment them one after another (the most important basis functions are
  #  listed first).
  #
  #  Constructed for dimers: 1.80 A, 2.25 A, 2.75 A, 3.50 A, 4.50 A
  #
  ################################################################################
  #  "First tier" - improvements: -189.23 meV to -6.35 meV
  #===============================================================================
       hydro 2 p 1.6
       hydro 2 s 2
       hydro 3 d 2.6
  #  "Second tier" - improvements: -4.69 meV to -0.41 meV
       hydro 3 p 4.6
       hydro 2 p 1.8
       hydro 3 s 6.2
       hydro 4 d 4.7
       hydro 4 f 4.1
  #  "Third tier" - improvements: -0.20 meV to -0.15 meV
  #     hydro 4 d 0.95
  #     hydro 3 p 6.2
  #     hydro 3 s 1.7
  #  Further functions, listed for completeness
  #     VB: The following functions are only listed for completeness; test very
  #         carefully before any kind of production use. From the point of view
  #         of the basis construction, their main role is to fill up space,
  #         and they are solely determined by the location of the cutoff potential.
  #     hydro 3 p 0.1  # -0.15 meV
  #     hydro 4 d 5    # -0.12 meV
  #     hydro 4 f 0.1  # -0.14 meV
  #     hydro 5 g 0.1  # -0.06 meV
  
  
  ################################################################################
  #
  # For methods that use the localized form of the "resolution of identity" for
  # the two-electron Coulomb operator (RI_method LVL), particularly Hartree-Fock and
  # hybrid density functional calculations, the highest accuracy can be obtained by
  # uncommenting the line beginning with "for_aux"  below, thus adding an extra g radial
  # function to the construction of the product basis set for the expansion.
  # See Ref. New J. Phys. 17, 093020 (2015) for more information, particularly Figs. 1 and 6.
  #
  ################################################################################
  #
  # for_aux hydro 5 g 6.0
  
  # FHI-aims file: ./control.in
  # Created using the Atomic Simulation Environment (ASE)
  # Wed Mar 24 12:41:28 2021
  #===============================================================================
  xc                                 pbe
  sc_accuracy_rho                    1e-08
  -----------------------------------------------------------------------
  sc_accuracy_forces                 1e-06
  friction_temperature               300.0
  k_grid                             5 5 5
  Completed first pass over input file control.in .
  -----------------------------------------------------------------------
  
  ################################################################################
  
  -----------------------------------------------------------------------
  Parsing geometry.in (first pass over file, find array dimensions only).
  The contents of geometry.in will be repeated verbatim below
  unless switched off by setting 'verbatim_writeout .false.' .
  in the first line of geometry.in .
  -----------------------------------------------------------------------
  
  #
  #  FHI-aims code project
  # Volker Blum, Fritz Haber Institute Berlin, 2009
  #
  #  Suggested "tight" defaults for Li atom (to be pasted into control.in file)
  #
  #  2016/03/22: Increased cutoff radius to 5.0 AA (Xinguo Ren, Aug 15, 2015)
  #
  ################################################################################
    species        Li
  #     global species definitions
      nucleus             3
      mass                6.941
  #
      l_hartree           6
  #
      cut_pot             5.0  2.0  1.0
      basis_dep_cutoff    1e-4
  #
      radial_base         29 7.0
      radial_multiplier   2
      angular_grids       specified
        division   0.4484  110
        division   0.5659  194
        division   0.6315  302
        division   0.6662  434
  #      division   0.8186  590
  #      division   0.9037  770
  #      division   6.2760  974
  #      outer_grid   974
        outer_grid  434
  ################################################################################
  #
  #  Definition of "minimal" basis
  #
  ################################################################################
  #     valence basis states
      valence      2  s   1.
  #     ion occupancy
      ion_occ      1  s   2.
  ################################################################################
  #
  #  Suggested additional basis functions. For production calculations,
  #  uncomment them one after another (the most important basis functions are
  #  listed first).
  #
  #  Constructed for dimers: 1.80 A, 2.25 A, 2.75 A, 3.50 A, 4.50 A
  #
  ################################################################################
  #  "First tier" - improvements: -189.23 meV to -6.35 meV
       hydro 2 p 1.6
       hydro 2 s 2
       hydro 3 d 2.6
  #  "Second tier" - improvements: -4.69 meV to -0.41 meV
       hydro 3 p 4.6
       hydro 2 p 1.8
       hydro 3 s 6.2
       hydro 4 d 4.7
       hydro 4 f 4.1
  #  "Third tier" - improvements: -0.20 meV to -0.15 meV
  #     hydro 4 d 0.95
  #     hydro 3 p 6.2
  #     hydro 3 s 1.7
  #  Further functions, listed for completeness
  #     VB: The following functions are only listed for completeness; test very
  #         carefully before any kind of production use. From the point of view
  #         of the basis construction, their main role is to fill up space,
  #         and they are solely determined by the location of the cutoff potential.
  #     hydro 3 p 0.1  # -0.15 meV
  #     hydro 4 d 5    # -0.12 meV
  #     hydro 4 f 0.1  # -0.14 meV
  #     hydro 5 g 0.1  # -0.06 meV
  
  
  ################################################################################
  #
  # For methods that use the localized form of the "resolution of identity" for
  # the two-electron Coulomb operator (RI_method LVL), particularly Hartree-Fock and
  # hybrid density functional calculations, the highest accuracy can be obtained by
  # uncommenting the line beginning with "for_aux"  below, thus adding an extra g radial
  # function to the construction of the product basis set for the expansion.
  # See Ref. New J. Phys. 17, 093020 (2015) for more information, particularly Figs. 1 and 6.
  #
  ################################################################################
  #
  # for_aux hydro 5 g 6.0
  #===============================================================================
  # FHI-aims file: ./control.in
  # Created using the Atomic Simulation Environment (ASE)
  # Wed Mar 24 12:41:28 2021
  #===============================================================================
  xc                                 pbe
  sc_accuracy_rho                    1e-08
  sc_accuracy_forces                 1e-06
  friction_temperature               300.0
  k_grid                             5 5 5
  ################################################################################
  #
  #  FHI-aims code project
  # Volker Blum, Fritz Haber Institute Berlin, 2009
  #
  #  Suggested "tight" defaults for Li atom (to be pasted into control.in file)
  #
  #  2016/03/22: Increased cutoff radius to 5.0 AA (Xinguo Ren, Aug 15, 2015)
  #
  ################################################################################
    species        Li
  #     global species definitions
      nucleus             3
      mass                6.941
  #
      l_hartree           6
  #
      cut_pot             5.0  2.0  1.0
      basis_dep_cutoff    1e-4
  #
      radial_base         29 7.0
      radial_multiplier   2
      angular_grids       specified
        division   0.4484  110
        division   0.5659  194
        division   0.6315  302
        division   0.6662  434
  #      division   0.8186  590
  #      division   0.9037  770
  #      division   6.2760  974
  #      outer_grid   974
        outer_grid  434
  ################################################################################
  #
  #  Definition of "minimal" basis
  #
  ################################################################################
  #     valence basis states
      valence      2  s   1.
  #     ion occupancy
      ion_occ      1  s   2.
  ################################################################################
  #
  #  Suggested additional basis functions. For production calculations,
  #  uncomment them one after another (the most important basis functions are
  #  listed first).
  #
  #  Constructed for dimers: 1.80 A, 2.25 A, 2.75 A, 3.50 A, 4.50 A
  #
  ################################################################################
  #  "First tier" - improvements: -189.23 meV to -6.35 meV
       hydro 2 p 1.6
       hydro 2 s 2
       hydro 3 d 2.6
  #  "Second tier" - improvements: -4.69 meV to -0.41 meV
       hydro 3 p 4.6
       hydro 2 p 1.8
       hydro 3 s 6.2
       hydro 4 d 4.7
       hydro 4 f 4.1
  #  "Third tier" - improvements: -0.20 meV to -0.15 meV
  #     hydro 4 d 0.95
  #     hydro 3 p 6.2
  #     hydro 3 s 1.7
  #  Further functions, listed for completeness
  #     VB: The following functions are only listed for completeness; test very
  #         carefully before any kind of production use. From the point of view
  #         of the basis construction, their main role is to fill up space,
  #         and they are solely determined by the location of the cutoff potential.
  #     hydro 3 p 0.1  # -0.15 meV
  #     hydro 4 d 5    # -0.12 meV
  #     hydro 4 f 0.1  # -0.14 meV
  #     hydro 5 g 0.1  # -0.06 meV
  
  
  ################################################################################
  #
  # For methods that use the localized form of the "resolution of identity" for
  # the two-electron Coulomb operator (RI_method LVL), particularly Hartree-Fock and
  # hybrid density functional calculations, the highest accuracy can be obtained by
  # uncommenting the line beginning with "for_aux"  below, thus adding an extra g radial
  # function to the construction of the product basis set for the expansion.
  # See Ref. New J. Phys. 17, 093020 (2015) for more information, particularly Figs. 1 and 6.
  #
  ################################################################################
  #
  # for_aux hydro 5 g 6.0
  | All pdtran() tests passed.
  #=======================================================

  Obtaining array dimensions for all initial allocations:
  
  -----------------------------------------------------------------------
  # FHI-aims file: ./data/test_rep/geometry.in.7
  # Created using the Atomic Simulation Environment (ASE)
  # Sat Feb 26 20:27:14 2022
  #=======================================================
  lattice_vector 3.1157159802000001 0.0000000000000000 0.0000000000000000
  Parsing control.in (first pass over file, find array dimensions only).
  The contents of control.in will be repeated verbatim below
  unless switched off by setting 'verbatim_writeout .false.' .
  in the first line of control.in .
  -----------------------------------------------------------------------
  lattice_vector 1.5578579901000005 2.6982891898303327 0.0000000000000000
  
  lattice_vector 1.5578579901000005 0.8994297299434445 2.5439714449751780
  atom 0.0000000000000000 0.0000000000000000 0.0000000000000000 Li
  
  -----------------------------------------------------------------------
  Completed first pass over input file control.in .
  -----------------------------------------------------------------------
  
  
  -----------------------------------------------------------------------
  Parsing geometry.in (first pass over file, find array dimensions only).
  
  -----------------------------------------------------------------------
  The contents of geometry.in will be repeated verbatim below
  unless switched off by setting 'verbatim_writeout .false.' .
  in the first line of geometry.in .
  -----------------------------------------------------------------------
  
  Completed first pass over input file control.in .
  -----------------------------------------------------------------------
  
  
  -----------------------------------------------------------------------
  Parsing geometry.in (first pass over file, find array dimensions only).
  The contents of geometry.in will be repeated verbatim below
  unless switched off by setting 'verbatim_writeout .false.' .
  in the first line of geometry.in .
  -----------------------------------------------------------------------
  
  
  -----------------------------------------------------------------------
  Completed first pass over input file geometry.in .
  -----------------------------------------------------------------------
  

  Basic array size parameters:
  | Number of species                 :        1
  | Number of atoms                   :        1
  | Number of lattice vectors         :        3
  | Max. basis fn. angular momentum   :        3
  | Max. atomic/ionic basis occupied n:        2
  | Max. number of basis fn. types    :        2
  | Max. radial fns per species/type  :        8
  | Max. logarithmic grid size        :     1220
  | Max. radial integration grid size :       59
  | Max. angular integration grid size:      434
  | Max. angular grid division number :        8
  | Radial grid for Hartree potential :     1220
  | Number of spin channels           :        1

------------------------------------------------------------
          Reading file control.in.
------------------------------------------------------------
  #===============================================================================
  # FHI-aims file: ./control.in
  # Created using the Atomic Simulation Environment (ASE)
  # Wed Mar 24 12:41:28 2021
  #===============================================================================
  xc                                 pbe
  sc_accuracy_rho                    1e-08
  sc_accuracy_forces                 1e-06
  friction_temperature               300.0
  k_grid                             5 5 5
  ################################################################################
  #
  #  FHI-aims code project
  # Volker Blum, Fritz Haber Institute Berlin, 2009
  #
  #  Suggested "tight" defaults for Li atom (to be pasted into control.in file)
  #
  #  2016/03/22: Increased cutoff radius to 5.0 AA (Xinguo Ren, Aug 15, 2015)
  #
  ################################################################################
    species        Li
  #     global species definitions
      nucleus             3
      mass                6.941
  #
      l_hartree           6
  #
      cut_pot             5.0  2.0  1.0
      basis_dep_cutoff    1e-4
  #
      radial_base         29 7.0
      radial_multiplier   2
      angular_grids       specified
        division   0.4484  110
        division   0.5659  194
        division   0.6315  302
        division   0.6662  434
  #      division   0.8186  590
  #      division   0.9037  770
  #      division   6.2760  974
  #      outer_grid   974
        outer_grid  434
  ################################################################################
  #
  #  Definition of "minimal" basis
  #
  ################################################################################
  #     valence basis states
      valence      2  s   1.
  #     ion occupancy
      ion_occ      1  s   2.
  ################################################################################
  #
  #  Suggested additional basis functions. For production calculations,
  #  uncomment them one after another (the most important basis functions are
  #  listed first).
  #
  #  Constructed for dimers: 1.80 A, 2.25 A, 2.75 A, 3.50 A, 4.50 A
  #
  ################################################################################
  #  "First tier" - improvements: -189.23 meV to -6.35 meV
       hydro 2 p 1.6
       hydro 2 s 2
       hydro 3 d 2.6
  #  "Second tier" - improvements: -4.69 meV to -0.41 meV
       hydro 3 p 4.6
       hydro 2 p 1.8
       hydro 3 s 6.2
       hydro 4 d 4.7
       hydro 4 f 4.1
  #  "Third tier" - improvements: -0.20 meV to -0.15 meV
  #     hydro 4 d 0.95
  #     hydro 3 p 6.2
  #     hydro 3 s 1.7
  #  Further functions, listed for completeness
  #     VB: The following functions are only listed for completeness; test very
  #         carefully before any kind of production use. From the point of view
  #         of the basis construction, their main role is to fill up space,
  #         and they are solely determined by the location of the cutoff potential.
  #     hydro 3 p 0.1  # -0.15 meV
  #     hydro 4 d 5    # -0.12 meV
  #     hydro 4 f 0.1  # -0.14 meV
  #     hydro 5 g 0.1  # -0.06 meV
  
  
  ################################################################################
  #
  # For methods that use the localized form of the "resolution of identity" for
  # the two-electron Coulomb operator (RI_method LVL), particularly Hartree-Fock and
  # hybrid density functional calculations, the highest accuracy can be obtained by
  # uncommenting the line beginning with "for_aux"  below, thus adding an extra g radial
  # function to the construction of the product basis set for the expansion.
  # See Ref. New J. Phys. 17, 093020 (2015) for more information, particularly Figs. 1 and 6.
  #
  ################################################################################
  #
  # for_aux hydro 5 g 6.0
  #=======================================================
  # FHI-aims file: ./data/test_rep/geometry.in.7
  # Created using the Atomic Simulation Environment (ASE)
  # Sat Feb 26 20:27:14 2022
  #=======================================================
  lattice_vector 3.1157159802000001 0.0000000000000000 0.0000000000000000
  lattice_vector 1.5578579901000005 2.6982891898303327 0.0000000000000000
  lattice_vector 1.5578579901000005 0.8994297299434445 2.5439714449751780
  atom 0.0000000000000000 0.0000000000000000 0.0000000000000000 Li
  #=======================================================
  # FHI-aims file: ./data/test_rep/geometry.in.7
  # Created using the Atomic Simulation Environment (ASE)
  # Sat Feb 26 20:27:14 2022
  #=======================================================
  lattice_vector 3.1157159802000001 0.0000000000000000 0.0000000000000000
  lattice_vector 1.5578579901000005 2.6982891898303327 0.0000000000000000
  lattice_vector 1.5578579901000005 0.8994297299434445 2.5439714449751780
  atom 0.0000000000000000 0.0000000000000000 0.0000000000000000 Li
  
  -----------------------------------------------------------------------
  Completed first pass over input file control.in .
  -----------------------------------------------------------------------
  
  
  -----------------------------------------------------------------------
  Parsing geometry.in (first pass over file, find array dimensions only).
  The contents of geometry.in will be repeated verbatim below
  unless switched off by setting 'verbatim_writeout .false.' .
  in the first line of geometry.in .
  -----------------------------------------------------------------------
  
  XC: Using PBE gradient-corrected functionals.
  Convergence accuracy of self-consistent charge density:  0.1000E-07
  Convergence accuracy of forces:  0.1000E-05
  Friction is calculated at temperature of   0.3000E+03 K
  Found k-point grid:         5         5         5
 
  Reading configuration options for species Li                  .
  | Found nuclear charge :   3.0000
  | Found atomic mass :    6.94100000000000      amu
  | Found l_max for Hartree potential  :   6
  | Found cutoff potl. onset [A], width [A], scale factor :    5.00000    2.00000    1.00000
  | Threshold for basis-dependent cutoff potential is   0.100000E-03
  | Found data for basic radial integration grid :    29 points, outermost radius =    7.000 A
  | Found multiplier for basic radial grid :   2
  | Found angular grid specification: user-specified.
  | Specified grid contains     5 separate shells.
  | Check grid settings after all constraints further below.
  | Found free-atom valence shell :  2 s   1.000
  | No ionic wave fns used. Skipping ion_occ.
  | Found hydrogenic basis function :  2 p   1.600
  | Found hydrogenic basis function :  2 s   2.000
  | Found hydrogenic basis function :  3 d   2.600
  | Found hydrogenic basis function :  3 p   4.600
  | Found hydrogenic basis function :  2 p   1.800
  
  | Found hydrogenic basis function :  3 s   6.200
  | Found hydrogenic basis function :  4 d   4.700
  -----------------------------------------------------------------------
  | Found hydrogenic basis function :  4 f   4.100
  Completed first pass over input file geometry.in .
  Species Li                  : Missing cutoff potential type.
  Defaulting to exp(1/x)/(1-x)^2 type cutoff potential.
  Species Li: No 'logarithmic' tag. Using default grid for free atom:
  -----------------------------------------------------------------------
  | Default logarithmic grid data [bohr] : 0.1000E-03 0.1000E+03 0.1012E+01
  Species Li: On-site basis accuracy parameter (for Gram-Schmidt orthonormalisation) not specified.
  
  Using default value basis_acc =  0.1000000E-03.
  Species Li                  : Using default innermost maximum threshold i_radial=  2 for radial functions.
  Species Li                  : Default cutoff onset for free atom density etc. : 0.50000000E+01 AA.
  Species Li                  : Basic radial grid will be enhanced according to radial_multiplier =   2, to contain    59 grid points.

  Basic array size parameters:
  | Number of species                 :        1
  | Number of atoms                   :        1
  | Number of lattice vectors         :        3
  | Max. basis fn. angular momentum   :        3
  | Max. atomic/ionic basis occupied n:        2
  | Max. number of basis fn. types    :        2
  | Max. radial fns per species/type  :        8
  | Max. logarithmic grid size        :     1220
  | Max. radial integration grid size :       59
  | Max. angular integration grid size:      434
  | Max. angular grid division number :        8
  | Radial grid for Hartree potential :     1220
  | Number of spin channels           :        1
  

  -----------------------------------------------------------------------
  Completed first pass over input file geometry.in .
  -----------------------------------------------------------------------
  

  Basic array size parameters:
  | Number of species                 :        1
  | Number of atoms                   :        1
  | Number of lattice vectors         :        3
  | Max. basis fn. angular momentum   :        3
------------------------------------------------------------
          Reading file control.in.
------------------------------------------------------------
  #=======================================================
  | Max. atomic/ionic basis occupied n:        2
  | Max. number of basis fn. types    :        2
  | Max. radial fns per species/type  :        8
  | Max. logarithmic grid size        :     1220
  | Max. radial integration grid size :       59
  | Max. angular integration grid size:      434
  # FHI-aims file: ./data/test_rep/geometry.in.7
  # Created using the Atomic Simulation Environment (ASE)
  # Sat Feb 26 20:27:14 2022
  #=======================================================
  lattice_vector 3.1157159802000001 0.0000000000000000 0.0000000000000000
  lattice_vector 1.5578579901000005 2.6982891898303327 0.0000000000000000
  lattice_vector 1.5578579901000005 0.8994297299434445 2.5439714449751780
  atom 0.0000000000000000 0.0000000000000000 0.0000000000000000 Li
  | Max. angular grid division number :        8
  | Radial grid for Hartree potential :     1220
  | Number of spin channels           :        1
 
  Finished reading input file 'control.in'. Consistency checks are next.
 
  MPI_IN_PLACE appears to work with this MPI implementation.
  | Keeping use_mpi_in_place .true. (see manual).
  Target number of points in a grid batch is not set. Defaulting to  100
  Method for grid partitioning is not set. Defaulting to parallel hash+maxmin partitioning.
  Batch size limit is not set. Defaulting to    200
  By default, will store active basis functions for each batch.
  If in need of memory, prune_basis_once .false. can be used to disable this option.
  communication_type for Hartree potential was not specified.
  Defaulting to calc_hartree .
  Defaulting to Pulay charge density mixer.
  Pulay mixer: Number of relevant iterations not set.
  Defaulting to    8 iterations.
  Pulay mixer: Number of initial linear mixing iterations not set.
  Defaulting to    0 iterations.
  Work space size for distributed Hartree potential not set.
  Defaulting to   0.200000E+03 MB.
  Mixing parameter for charge density mixing has not been set.
  Using default: charge_mix_param =     0.0500.
  The mixing parameter will be adjusted in iteration number     2 of the first full s.c.f. cycle only.
  Algorithm-dependent basis array size parameters:
  | n_max_pulay                         :        8
  Maximum number of self-consistency iterations not provided.
  Presetting  1000 iterations.
  Presetting      1001 iterations before the initial mixing cycle
  is restarted anyway using the sc_init_iter criterion / keyword.
  Presetting a factor      1.000 between actual scf density residual
  and density convergence criterion sc_accuracy_rho below which sc_init_iter
  takes no effect.
  Geometry relaxation not requested: no relaxation will be performed.
  Handling of forces: Unphysical translation and rotation will be removed from forces.
  No accuracy limit for integral partition fn. given. Defaulting to  0.1000E-14.
  No threshold value for u(r) in integrations given. Defaulting to  0.1000E-05.
  No occupation type (smearing scheme) given. Defaulting to Gaussian broadening, width =  0.1000E-01 eV.
  The width will be adjusted in iteration number     2 of the first full s.c.f. cycle only.
  S.C.F. convergence parameters will be adjusted in iteration number     2 of the first full s.c.f. cycle only.
  No accuracy for occupation numbers given. Defaulting to  0.1000E-12.
  No threshold value for occupation numbers given. Defaulting to  0.0000E+00.
  No accuracy for fermi level given. Defaulting to  0.1000E-19.
  Maximum # of iterations to find E_F not set. Defaulting to  200.
  Preferred method for the eigenvalue solver ('KS_method') not specified in 'control.in'.
  Defaulting to serial version, 'lapack_fast'.
  Will not use alltoall communication since running on < 1024 CPUs.
  Threshold for basis singularities not set.
  Default threshold for basis singularities:  0.1000E-04
  partition_type (choice of integration weights) for integrals was not specified.
  | Using a version of the partition function of Stratmann and coworkers ('stratmann_smoother').
  | At each grid point, the set of atoms used to build the partition table is smoothly restricted to
  | only those atoms whose free-atom density would be non-zero at that grid point.
  Partitioning for Hartree potential was not defined. Using partition_type for integrals.
  | Adjusted default value of keyword multip_moments_threshold to:       0.10000000E-11
  | This value may affect high angular momentum components of the Hartree potential in periodic systems.
  Spin handling was not defined in control.in. Defaulting to unpolarized case.
  Angular momentum expansion for Kerker preconditioner not set explicitly.
  | Using default value of   0
  No explicit requirement for turning off preconditioner.
  | By default, it will be turned off when the charge convergence reaches
  | sc_accuracy_rho  =   0.100000E-07
  No special mixing parameter while Kerker preconditioner is on.
  Using default: charge_mix_param =     0.0500.
  No q(lm)/r^(l+1) cutoff set for long-range Hartree potential.
  | Using default value of  0.100000E-09 .
  | Verify using the multipole_threshold keyword.
  Defaulting to new monopole extrapolation.
  Density update method: automatic selection selected.
  Using density matrix based charge density update.
  Using density matrix based charge density update.
  Using packed matrix style: index .
  Defaulting to use time-reversal symmetry for k-point grid.
------------------------------------------------------------


------------------------------------------------------------
          Reading geometry description geometry.in.
------------------------------------------------------------

  XC: Using PBE gradient-corrected functionals.
------------------------------------------------------------
          Reading file control.in.
  Convergence accuracy of self-consistent charge density:  0.1000E-07
------------------------------------------------------------
  Convergence accuracy of forces:  0.1000E-05
  Friction is calculated at temperature of   0.3000E+03 K
  Found k-point grid:         5         5         5
 
  Reading configuration options for species Li                  .
  | Found nuclear charge :   3.0000
  | Found atomic mass :    6.94100000000000      amu
  | Found l_max for Hartree potential  :   6
  | Found cutoff potl. onset [A], width [A], scale factor :    5.00000    2.00000    1.00000
  | Threshold for basis-dependent cutoff potential is   0.100000E-03
  | Found data for basic radial integration grid :    29 points, outermost radius =    7.000 A
  | Found multiplier for basic radial grid :   2
  | Found angular grid specification: user-specified.
  
  | Specified grid contains     5 separate shells.
  | Check grid settings after all constraints further below.
  | Found free-atom valence shell :  2 s   1.000
  | No ionic wave fns used. Skipping ion_occ.
  | Found hydrogenic basis function :  2 p   1.600
  | Found hydrogenic basis function :  2 s   2.000
  | Found hydrogenic basis function :  3 d   2.600
  | Found hydrogenic basis function :  3 p   4.600
  -----------------------------------------------------------------------
  Completed first pass over input file geometry.in .
  | Found hydrogenic basis function :  2 p   1.800
  | Found hydrogenic basis function :  3 s   6.200
  -----------------------------------------------------------------------
  
  | Found hydrogenic basis function :  4 d   4.700
  | Found hydrogenic basis function :  4 f   4.100

  Species Li                  : Missing cutoff potential type.
  Defaulting to exp(1/x)/(1-x)^2 type cutoff potential.
  Species Li: No 'logarithmic' tag. Using default grid for free atom:
  | Default logarithmic grid data [bohr] : 0.1000E-03 0.1000E+03 0.1012E+01
  Species Li: On-site basis accuracy parameter (for Gram-Schmidt orthonormalisation) not specified.
  Using default value basis_acc =  0.1000000E-03.
  Species Li                  : Using default innermost maximum threshold i_radial=  2 for radial functions.
  Species Li                  : Default cutoff onset for free atom density etc. : 0.50000000E+01 AA.
  Species Li                  : Basic radial grid will be enhanced according to radial_multiplier =   2, to contain    59 grid points.
  Basic array size parameters:
  | Number of species                 :        1
  | Number of atoms                   :        1
  | Number of lattice vectors         :        3
  | Max. basis fn. angular momentum   :        3
  | Max. atomic/ionic basis occupied n:        2
  | Max. number of basis fn. types    :        2
  | Max. radial fns per species/type  :        8
  | Max. logarithmic grid size        :     1220
  | Max. radial integration grid size :       59
  | Max. angular integration grid size:      434
  | Max. angular grid division number :        8
  | Radial grid for Hartree potential :     1220
  | Number of spin channels           :        1

------------------------------------------------------------
          Reading file control.in.
------------------------------------------------------------
 
  Finished reading input file 'control.in'. Consistency checks are next.
 
  MPI_IN_PLACE appears to work with this MPI implementation.
  | Keeping use_mpi_in_place .true. (see manual).
  Target number of points in a grid batch is not set. Defaulting to  100
  Method for grid partitioning is not set. Defaulting to parallel hash+maxmin partitioning.
  Batch size limit is not set. Defaulting to    200
  By default, will store active basis functions for each batch.
  If in need of memory, prune_basis_once .false. can be used to disable this option.
  communication_type for Hartree potential was not specified.
  Defaulting to calc_hartree .
  Defaulting to Pulay charge density mixer.
  Pulay mixer: Number of relevant iterations not set.
  Defaulting to    8 iterations.
  Pulay mixer: Number of initial linear mixing iterations not set.
  Defaulting to    0 iterations.
  Work space size for distributed Hartree potential not set.
  Defaulting to   0.200000E+03 MB.
  Mixing parameter for charge density mixing has not been set.
  Using default: charge_mix_param =     0.0500.
  The mixing parameter will be adjusted in iteration number     2 of the first full s.c.f. cycle only.
  Algorithm-dependent basis array size parameters:
  | n_max_pulay                         :        8
  Maximum number of self-consistency iterations not provided.
  Presetting  1000 iterations.
  Presetting      1001 iterations before the initial mixing cycle
  is restarted anyway using the sc_init_iter criterion / keyword.
  Presetting a factor      1.000 between actual scf density residual
  and density convergence criterion sc_accuracy_rho below which sc_init_iter
  takes no effect.
  Geometry relaxation not requested: no relaxation will be performed.
  Handling of forces: Unphysical translation and rotation will be removed from forces.
  No accuracy limit for integral partition fn. given. Defaulting to  0.1000E-14.
  No threshold value for u(r) in integrations given. Defaulting to  0.1000E-05.
  No occupation type (smearing scheme) given. Defaulting to Gaussian broadening, width =  0.1000E-01 eV.
  The width will be adjusted in iteration number     2 of the first full s.c.f. cycle only.
  S.C.F. convergence parameters will be adjusted in iteration number     2 of the first full s.c.f. cycle only.
  No accuracy for occupation numbers given. Defaulting to  0.1000E-12.
  No threshold value for occupation numbers given. Defaulting to  0.0000E+00.
  No accuracy for fermi level given. Defaulting to  0.1000E-19.
  Maximum # of iterations to find E_F not set. Defaulting to  200.
  Preferred method for the eigenvalue solver ('KS_method') not specified in 'control.in'.
  Defaulting to serial version, 'lapack_fast'.
  Will not use alltoall communication since running on < 1024 CPUs.
  Threshold for basis singularities not set.
  Default threshold for basis singularities:  0.1000E-04
  partition_type (choice of integration weights) for integrals was not specified.
  | Using a version of the partition function of Stratmann and coworkers ('stratmann_smoother').
  | At each grid point, the set of atoms used to build the partition table is smoothly restricted to
  | only those atoms whose free-atom density would be non-zero at that grid point.
  Partitioning for Hartree potential was not defined. Using partition_type for integrals.
  | Adjusted default value of keyword multip_moments_threshold to:       0.10000000E-11
  | This value may affect high angular momentum components of the Hartree potential in periodic systems.
  Spin handling was not defined in control.in. Defaulting to unpolarized case.
  Angular momentum expansion for Kerker preconditioner not set explicitly.
  | Using default value of   0
  No explicit requirement for turning off preconditioner.
  | By default, it will be turned off when the charge convergence reaches
  | sc_accuracy_rho  =   0.100000E-07
  No special mixing parameter while Kerker preconditioner is on.
  Using default: charge_mix_param =     0.0500.
  No q(lm)/r^(l+1) cutoff set for long-range Hartree potential.
  | Using default value of  0.100000E-09 .
  | Verify using the multipole_threshold keyword.
  Defaulting to new monopole extrapolation.
  Density update method: automatic selection selected.
  Using density matrix based charge density update.
  Using density matrix based charge density update.
  Using packed matrix style: index .
  Defaulting to use time-reversal symmetry for k-point grid.
------------------------------------------------------------


------------------------------------------------------------
          Reading geometry description geometry.in.
------------------------------------------------------------
  XC: Using PBE gradient-corrected functionals.
  Convergence accuracy of self-consistent charge density:  0.1000E-07
  Convergence accuracy of forces:  0.1000E-05
  Friction is calculated at temperature of   0.3000E+03 K
  Found k-point grid:         5         5         5
 
  Reading configuration options for species Li                  .
  | Found nuclear charge :   3.0000
  | Found atomic mass :    6.94100000000000      amu
  | Found l_max for Hartree potential  :   6
  XC: Using PBE gradient-corrected functionals.
  | Found cutoff potl. onset [A], width [A], scale factor :    5.00000    2.00000    1.00000
  | Threshold for basis-dependent cutoff potential is   0.100000E-03
  | Found data for basic radial integration grid :    29 points, outermost radius =    7.000 A
  | Found multiplier for basic radial grid :   2
  | Found angular grid specification: user-specified.
  Convergence accuracy of self-consistent charge density:  0.1000E-07
  | Specified grid contains     5 separate shells.
  | Check grid settings after all constraints further below.
  | Found free-atom valence shell :  2 s   1.000
  | No ionic wave fns used. Skipping ion_occ.
  | Found hydrogenic basis function :  2 p   1.600
  | Found hydrogenic basis function :  2 s   2.000
  | Found hydrogenic basis function :  3 d   2.600
  | Found hydrogenic basis function :  3 p   4.600
  | Found hydrogenic basis function :  2 p   1.800
  | Found hydrogenic basis function :  3 s   6.200
  | Found hydrogenic basis function :  4 d   4.700
  | Found hydrogenic basis function :  4 f   4.100
  Convergence accuracy of forces:  0.1000E-05
  Species Li                  : Missing cutoff potential type.
  Defaulting to exp(1/x)/(1-x)^2 type cutoff potential.
  Species Li: No 'logarithmic' tag. Using default grid for free atom:
  | Default logarithmic grid data [bohr] : 0.1000E-03 0.1000E+03 0.1012E+01
  Species Li: On-site basis accuracy parameter (for Gram-Schmidt orthonormalisation) not specified.
  Using default value basis_acc =  0.1000000E-03.
  Species Li                  : Using default innermost maximum threshold i_radial=  2 for radial functions.
  Species Li                  : Default cutoff onset for free atom density etc. : 0.50000000E+01 AA.
  Friction is calculated at temperature of   0.3000E+03 K
  Species Li                  : Basic radial grid will be enhanced according to radial_multiplier =   2, to contain    59 grid points.
  Found k-point grid:         5         5         5
 
  Finished reading input file 'control.in'. Consistency checks are next.
 
  MPI_IN_PLACE appears to work with this MPI implementation.
  | Keeping use_mpi_in_place .true. (see manual).
  Target number of points in a grid batch is not set. Defaulting to  100
  Method for grid partitioning is not set. Defaulting to parallel hash+maxmin partitioning.
  Batch size limit is not set. Defaulting to    200
  By default, will store active basis functions for each batch.
  If in need of memory, prune_basis_once .false. can be used to disable this option.
  communication_type for Hartree potential was not specified.
  Defaulting to calc_hartree .
  Defaulting to Pulay charge density mixer.
  Pulay mixer: Number of relevant iterations not set.
  Defaulting to    8 iterations.
  Pulay mixer: Number of initial linear mixing iterations not set.
  Defaulting to    0 iterations.
  Work space size for distributed Hartree potential not set.
  Defaulting to   0.200000E+03 MB.
  Mixing parameter for charge density mixing has not been set.
  Using default: charge_mix_param =     0.0500.
  The mixing parameter will be adjusted in iteration number     2 of the first full s.c.f. cycle only.
  Algorithm-dependent basis array size parameters:
  | n_max_pulay                         :        8
  Maximum number of self-consistency iterations not provided.
  Presetting  1000 iterations.
  Presetting      1001 iterations before the initial mixing cycle
  is restarted anyway using the sc_init_iter criterion / keyword.
  Presetting a factor      1.000 between actual scf density residual
  and density convergence criterion sc_accuracy_rho below which sc_init_iter
  takes no effect.
  Geometry relaxation not requested: no relaxation will be performed.
  Handling of forces: Unphysical translation and rotation will be removed from forces.
  No accuracy limit for integral partition fn. given. Defaulting to  0.1000E-14.
  No threshold value for u(r) in integrations given. Defaulting to  0.1000E-05.
  No occupation type (smearing scheme) given. Defaulting to Gaussian broadening, width =  0.1000E-01 eV.
  The width will be adjusted in iteration number     2 of the first full s.c.f. cycle only.
  S.C.F. convergence parameters will be adjusted in iteration number     2 of the first full s.c.f. cycle only.
  No accuracy for occupation numbers given. Defaulting to  0.1000E-12.
  No threshold value for occupation numbers given. Defaulting to  0.0000E+00.
  No accuracy for fermi level given. Defaulting to  0.1000E-19.
  Maximum # of iterations to find E_F not set. Defaulting to  200.
  Preferred method for the eigenvalue solver ('KS_method') not specified in 'control.in'.
  Defaulting to serial version, 'lapack_fast'.
  Will not use alltoall communication since running on < 1024 CPUs.
  Threshold for basis singularities not set.
  Default threshold for basis singularities:  0.1000E-04
  partition_type (choice of integration weights) for integrals was not specified.
  | Using a version of the partition function of Stratmann and coworkers ('stratmann_smoother').
  | At each grid point, the set of atoms used to build the partition table is smoothly restricted to
  | only those atoms whose free-atom density would be non-zero at that grid point.
  Partitioning for Hartree potential was not defined. Using partition_type for integrals.
  | Adjusted default value of keyword multip_moments_threshold to:       0.10000000E-11
  | This value may affect high angular momentum components of the Hartree potential in periodic systems.
  Spin handling was not defined in control.in. Defaulting to unpolarized case.
  Angular momentum expansion for Kerker preconditioner not set explicitly.
  | Using default value of   0
  No explicit requirement for turning off preconditioner.
  | By default, it will be turned off when the charge convergence reaches
  | sc_accuracy_rho  =   0.100000E-07
  No special mixing parameter while Kerker preconditioner is on.
  Using default: charge_mix_param =     0.0500.
  No q(lm)/r^(l+1) cutoff set for long-range Hartree potential.
  | Using default value of  0.100000E-09 .
  | Verify using the multipole_threshold keyword.
  Defaulting to new monopole extrapolation.
  Density update method: automatic selection selected.
  Using density matrix based charge density update.
  Using density matrix based charge density update.
  Using packed matrix style: index .
  Defaulting to use time-reversal symmetry for k-point grid.
------------------------------------------------------------
 
  Reading configuration options for species Li                  .


------------------------------------------------------------
          Reading geometry description geometry.in.
  | Found nuclear charge :   3.0000
  | Found atomic mass :    6.94100000000000      amu
  | Found l_max for Hartree potential  :   6
  | Found cutoff potl. onset [A], width [A], scale factor :    5.00000    2.00000    1.00000
------------------------------------------------------------
  | Threshold for basis-dependent cutoff potential is   0.100000E-03
  | Found data for basic radial integration grid :    29 points, outermost radius =    7.000 A
  | Found multiplier for basic radial grid :   2
  | Found angular grid specification: user-specified.
 * Warning! You did not set the 'relativistic' flag in input file 'control.in'.
 * Since you are not attempting to treat any elements beyond Ca(Z=20), FHI-aims
 * will default to 'relativistic none'.
 * You must ensure that this is really what you want!!
 * For example, DO NOT compute total-energy differences between results from
 * different settings of the 'relativistic' flag.
  Input structure read successfully.
  The structure contains        1 atoms,  and a total of          3.000 electrons.

  Input geometry:
  | Unit cell:
  |        3.11571598        0.00000000        0.00000000
  |        1.55785799        2.69828919        0.00000000
  |        1.55785799        0.89942973        2.54397144
  | Atomic structure:
  |       Atom                x [A]            y [A]            z [A]
  |    1: Species Li            0.00000000        0.00000000        0.00000000

  Lattice parameters for 3D lattice (in Angstroms) :     3.115716    3.115716    3.115716
  Angle(s) between unit vectors (in degrees)      :    60.000000   60.000000   60.000000

  |

  | The smallest distance between any two atoms is         3.11571598 AA.
  |
  | The first atom of this pair is atom number                      1 .
  | The second atom of this pair is atom number                     1 .
  | Wigner-Seitz cell of the first atom image          -1     0     1 .
  | (The Wigner-Seitz cell of the second atom is 0 0 0  by definition.)
 * Warning! You did not set the 'relativistic' flag in input file 'control.in'.
 * Since you are not attempting to treat any elements beyond Ca(Z=20), FHI-aims
 * will default to 'relativistic none'.
 * You must ensure that this is really what you want!!
 * For example, DO NOT compute total-energy differences between results from
 * different settings of the 'relativistic' flag.
  Input structure read successfully.
  The structure contains        1 atoms,  and a total of          3.000 electrons.

  Input geometry:
  | Unit cell:
  |        3.11571598        0.00000000        0.00000000
  |        1.55785799        2.69828919        0.00000000
  |        1.55785799        0.89942973        2.54397144
  | Atomic structure:
  |       Atom                x [A]            y [A]            z [A]
  |    1: Species Li            0.00000000        0.00000000        0.00000000

  Lattice parameters for 3D lattice (in Angstroms) :     3.115716    3.115716    3.115716
  Angle(s) between unit vectors (in degrees)      :    60.000000   60.000000   60.000000

  |

  | The smallest distance between any two atoms is         3.11571598 AA.
  |
  | The first atom of this pair is atom number                      1 .
  | The second atom of this pair is atom number                     1 .
  | Wigner-Seitz cell of the first atom image          -1     0     1 .
  | (The Wigner-Seitz cell of the second atom is 0 0 0  by definition.)
 * Warning! You did not set the 'relativistic' flag in input file 'control.in'.
 * Since you are not attempting to treat any elements beyond Ca(Z=20), FHI-aims
 * will default to 'relativistic none'.
 * You must ensure that this is really what you want!!
 * For example, DO NOT compute total-energy differences between results from
 * different settings of the 'relativistic' flag.
  Input structure read successfully.
  The structure contains        1 atoms,  and a total of          3.000 electrons.

  Input geometry:
  | Unit cell:
  |        3.11571598        0.00000000        0.00000000
  |        1.55785799        2.69828919        0.00000000
  |        1.55785799        0.89942973        2.54397144
  | Atomic structure:
  |       Atom                x [A]            y [A]            z [A]
  |    1: Species Li            0.00000000        0.00000000        0.00000000

  Lattice parameters for 3D lattice (in Angstroms) :     3.115716    3.115716    3.115716
  Angle(s) between unit vectors (in degrees)      :    60.000000   60.000000   60.000000

  |

  | The smallest distance between any two atoms is         3.11571598 AA.
  |
  | The first atom of this pair is atom number                      1 .
  | The second atom of this pair is atom number                     1 .
  | Wigner-Seitz cell of the first atom image          -1     0     1 .
  | (The Wigner-Seitz cell of the second atom is 0 0 0  by definition.)
  | Specified grid contains     5 separate shells.
  | Check grid settings after all constraints further below.
  | Found free-atom valence shell :  2 s   1.000
  | No ionic wave fns used. Skipping ion_occ.
  | Found hydrogenic basis function :  2 p   1.600
  | Found hydrogenic basis function :  2 s   2.000
  | Found hydrogenic basis function :  3 d   2.600
  | Found hydrogenic basis function :  3 p   4.600
  | Found hydrogenic basis function :  2 p   1.800
  | Found hydrogenic basis function :  3 s   6.200
  | Found hydrogenic basis function :  4 d   4.700
  | Found hydrogenic basis function :  4 f   4.100
  Species Li                  : Missing cutoff potential type.
  Defaulting to exp(1/x)/(1-x)^2 type cutoff potential.
  Species Li: No 'logarithmic' tag. Using default grid for free atom:
  | Default logarithmic grid data [bohr] : 0.1000E-03 0.1000E+03 0.1012E+01
  Species Li: On-site basis accuracy parameter (for Gram-Schmidt orthonormalisation) not specified.
  Using default value basis_acc =  0.1000000E-03.
  Species Li                  : Using default innermost maximum threshold i_radial=  2 for radial functions.
  Species Li                  : Default cutoff onset for free atom density etc. : 0.50000000E+01 AA.
  Species Li                  : Basic radial grid will be enhanced according to radial_multiplier =   2, to contain    59 grid points.
 
  Finished reading input file 'control.in'. Consistency checks are next.
 
  MPI_IN_PLACE appears to work with this MPI implementation.
  | Keeping use_mpi_in_place .true. (see manual).
  Target number of points in a grid batch is not set. Defaulting to  100
  Method for grid partitioning is not set. Defaulting to parallel hash+maxmin partitioning.
  Batch size limit is not set. Defaulting to    200
  By default, will store active basis functions for each batch.
  If in need of memory, prune_basis_once .false. can be used to disable this option.
  communication_type for Hartree potential was not specified.
  Defaulting to calc_hartree .
  Defaulting to Pulay charge density mixer.
  Pulay mixer: Number of relevant iterations not set.
  Defaulting to    8 iterations.
  Pulay mixer: Number of initial linear mixing iterations not set.
  Defaulting to    0 iterations.
  Work space size for distributed Hartree potential not set.
  Defaulting to   0.200000E+03 MB.
  Mixing parameter for charge density mixing has not been set.
  Using default: charge_mix_param =     0.0500.
  The mixing parameter will be adjusted in iteration number     2 of the first full s.c.f. cycle only.
  Algorithm-dependent basis array size parameters:
  | n_max_pulay                         :        8
  Maximum number of self-consistency iterations not provided.
  Presetting  1000 iterations.
  Presetting      1001 iterations before the initial mixing cycle
  is restarted anyway using the sc_init_iter criterion / keyword.
  Presetting a factor      1.000 between actual scf density residual
  and density convergence criterion sc_accuracy_rho below which sc_init_iter
  takes no effect.
  Geometry relaxation not requested: no relaxation will be performed.
  Handling of forces: Unphysical translation and rotation will be removed from forces.
  No accuracy limit for integral partition fn. given. Defaulting to  0.1000E-14.
  No threshold value for u(r) in integrations given. Defaulting to  0.1000E-05.
  No occupation type (smearing scheme) given. Defaulting to Gaussian broadening, width =  0.1000E-01 eV.
  The width will be adjusted in iteration number     2 of the first full s.c.f. cycle only.
  S.C.F. convergence parameters will be adjusted in iteration number     2 of the first full s.c.f. cycle only.
  No accuracy for occupation numbers given. Defaulting to  0.1000E-12.
  No threshold value for occupation numbers given. Defaulting to  0.0000E+00.
  No accuracy for fermi level given. Defaulting to  0.1000E-19.
  Maximum # of iterations to find E_F not set. Defaulting to  200.
  Preferred method for the eigenvalue solver ('KS_method') not specified in 'control.in'.
  Defaulting to serial version, 'lapack_fast'.
  Will not use alltoall communication since running on < 1024 CPUs.
  Threshold for basis singularities not set.
  Default threshold for basis singularities:  0.1000E-04
  partition_type (choice of integration weights) for integrals was not specified.
  | Using a version of the partition function of Stratmann and coworkers ('stratmann_smoother').
  | At each grid point, the set of atoms used to build the partition table is smoothly restricted to
  | only those atoms whose free-atom density would be non-zero at that grid point.
  Partitioning for Hartree potential was not defined. Using partition_type for integrals.
  | Adjusted default value of keyword multip_moments_threshold to:       0.10000000E-11
  | This value may affect high angular momentum components of the Hartree potential in periodic systems.
  Spin handling was not defined in control.in. Defaulting to unpolarized case.
  Angular momentum expansion for Kerker preconditioner not set explicitly.
  | Using default value of   0
  No explicit requirement for turning off preconditioner.
  | By default, it will be turned off when the charge convergence reaches
  | sc_accuracy_rho  =   0.100000E-07
  No special mixing parameter while Kerker preconditioner is on.
  Using default: charge_mix_param =     0.0500.
  No q(lm)/r^(l+1) cutoff set for long-range Hartree potential.
  | Using default value of  0.100000E-09 .
  | Verify using the multipole_threshold keyword.
  Defaulting to new monopole extrapolation.
  Density update method: automatic selection selected.
  Using density matrix based charge density update.
  Using density matrix based charge density update.
  Using packed matrix style: index .
  Defaulting to use time-reversal symmetry for k-point grid.
------------------------------------------------------------


------------------------------------------------------------
          Reading geometry description geometry.in.
------------------------------------------------------------
 * Warning! You did not set the 'relativistic' flag in input file 'control.in'.
 * Since you are not attempting to treat any elements beyond Ca(Z=20), FHI-aims
 * will default to 'relativistic none'.
 * You must ensure that this is really what you want!!
 * For example, DO NOT compute total-energy differences between results from
 * different settings of the 'relativistic' flag.
  Input structure read successfully.
  The structure contains        1 atoms,  and a total of          3.000 electrons.

  Input geometry:
  | Unit cell:
  |        3.11571598        0.00000000        0.00000000
  |        1.55785799        2.69828919        0.00000000
  |        1.55785799        0.89942973        2.54397144
  | Atomic structure:
  |       Atom                x [A]            y [A]            z [A]
  |    1: Species Li            0.00000000        0.00000000        0.00000000

  Lattice parameters for 3D lattice (in Angstroms) :     3.115716    3.115716    3.115716
  Angle(s) between unit vectors (in degrees)      :    60.000000   60.000000   60.000000

  |

  | The smallest distance between any two atoms is         3.11571598 AA.
  |
  | The first atom of this pair is atom number                      1 .
  | The second atom of this pair is atom number                     1 .
  | Wigner-Seitz cell of the first atom image          -1     0     1 .
  | (The Wigner-Seitz cell of the second atom is 0 0 0  by definition.)

  Symmetry information by spglib:
  | Precision set to  0.1E-04

  Symmetry information by spglib:
  | Precision set to  0.1E-04
  | Number of Operations  : 48
  | Space group           : 225
  | International         : Fm-3m
  | Schoenflies           : Oh^5

  Quantities derived from the lattice vectors:
  | Reciprocal lattice vector 1:  2.016610 -1.164291 -0.823278
  | Reciprocal lattice vector 2: -0.000000  2.328581 -0.823278
  | Reciprocal lattice vector 3: -0.000000 -0.000000  2.469833
  | Unit cell volume                               :   0.213874E+02  A^3

  Range separation radius for Ewald summation (hartree_convergence_parameter):      3.98394198 bohr.

  Fractional coordinates:
                         L1                L2                L3
       atom_frac         0.00000000        0.00000000        0.00000000  Li

  Number of empty states per atom not set in control.in - providing a guess from actual geometry.
  | Total number of empty states used during s.c.f. cycle:        2
  If you use a very high smearing, use empty_states (per atom!) in control.in to increase this value.

  Structure-dependent array size parameters: 
  | Maximum number of distinct radial functions  :       10
  | Maximum number of basis functions            :       30
  | Number of Kohn-Sham states (occupied + empty):        4
------------------------------------------------------------

------------------------------------------------------------
          Preparing all fixed parts of the calculation.
------------------------------------------------------------
  Determining machine precision:
    2.225073858507201E-308
  Setting up grids for atomic and cluster calculations.

  Creating wave function, potential, and density for free atoms.

  Species: Li
  | Number of Operations  : 48
  | Space group           : 225
  | International         : Fm-3m
  | Schoenflies           : Oh^5

  Quantities derived from the lattice vectors:
  | Reciprocal lattice vector 1:  2.016610 -1.164291 -0.823278
  | Reciprocal lattice vector 2: -0.000000  2.328581 -0.823278
  | Reciprocal lattice vector 3: -0.000000 -0.000000  2.469833
  | Unit cell volume                               :   0.213874E+02  A^3

  Range separation radius for Ewald summation (hartree_convergence_parameter):      3.98394198 bohr.

  Fractional coordinates:
                         L1                L2                L3
       atom_frac         0.00000000        0.00000000        0.00000000  Li

  Number of empty states per atom not set in control.in - providing a guess from actual geometry.
  | Total number of empty states used during s.c.f. cycle:        2
  If you use a very high smearing, use empty_states (per atom!) in control.in to increase this value.

  Structure-dependent array size parameters: 
  | Maximum number of distinct radial functions  :       10
  | Maximum number of basis functions            :       30
  | Number of Kohn-Sham states (occupied + empty):        4
------------------------------------------------------------

------------------------------------------------------------
          Preparing all fixed parts of the calculation.
------------------------------------------------------------
  Determining machine precision:
    2.225073858507201E-308
  Setting up grids for atomic and cluster calculations.

  Creating wave function, potential, and density for free atoms.

  Species: Li

  Symmetry information by spglib:
  | Precision set to  0.1E-04
  | Number of Operations  : 48
  | Space group           : 225
  | International         : Fm-3m
  | Schoenflies           : Oh^5

  Quantities derived from the lattice vectors:
  | Reciprocal lattice vector 1:  2.016610 -1.164291 -0.823278
  | Reciprocal lattice vector 2: -0.000000  2.328581 -0.823278
  | Reciprocal lattice vector 3: -0.000000 -0.000000  2.469833
  | Unit cell volume                               :   0.213874E+02  A^3

  Range separation radius for Ewald summation (hartree_convergence_parameter):      3.98394198 bohr.

  Fractional coordinates:
                         L1                L2                L3
       atom_frac         0.00000000        0.00000000        0.00000000  Li

  Number of empty states per atom not set in control.in - providing a guess from actual geometry.
  | Total number of empty states used during s.c.f. cycle:        2
  If you use a very high smearing, use empty_states (per atom!) in control.in to increase this value.

  Structure-dependent array size parameters: 
  | Maximum number of distinct radial functions  :       10
  | Maximum number of basis functions            :       30
  | Number of Kohn-Sham states (occupied + empty):        4
------------------------------------------------------------

------------------------------------------------------------
          Preparing all fixed parts of the calculation.
------------------------------------------------------------
  Determining machine precision:
    2.225073858507201E-308
  Setting up grids for atomic and cluster calculations.

  Creating wave function, potential, and density for free atoms.

  Species: Li

  List of occupied orbitals and eigenvalues:
    n    l              occ      energy [Ha]    energy [eV]
    1    0           2.0000        -1.901473       -51.7417
    2    0           1.0000        -0.103132        -2.8064

  Creating fixed part of basis set: Ionic, confined, hydrogenic.
 
  Li                   hydrogenic:

  List of occupied orbitals and eigenvalues:
    n    l              occ      energy [Ha]    energy [eV]
    1    0           2.0000        -1.901473       -51.7417
    2    0           1.0000        -0.103132        -2.8064

  Creating fixed part of basis set: Ionic, confined, hydrogenic.
 
  Li                   hydrogenic:
 
  List of hydrogenic basis orbitals: 
    n    l      effective z      eigenvalue [eV]  inner max. [A]     outer max. [A]     outer radius [A]   
    2    1         1.600000        -8.7048           1.319365           1.319365           6.386418
    2    0         2.000000       -13.6052           0.203259           1.385485           6.232164
    3    2         2.600000       -10.2084           1.835332           1.835332           6.386418
    3    1         4.600000       -31.9883           0.343834           1.385485           5.381805
    2    1         1.800000       -11.0199           1.181903           1.181903           6.386418
    3    0         6.200000       -58.1113           0.062858           1.111823           4.371906
    4    2         4.700000       -18.7772           0.761113           2.401695           6.386418
    4    3         4.100000       -14.2833           2.073992           2.073992           6.386418
 

  Adding cutoff potential to free-atom effective potential.
  Creating atomic-like basis functions for current effective potential.

  Species Li                  :

  List of atomic basis orbitals and eigenvalues:
    n    l      energy [Ha]    energy [eV]    outer radius [A]
    1    0        -1.901473       -51.7417       4.318785
    2    0        -0.103132        -2.8064       6.464971

  Assembling full basis from fixed parts.
  | Species Li :   atomic orbital   1 s accepted.
  | Species Li :    hydro orbital   3 s accepted.
  | Species Li :    hydro orbital   2 s accepted.
  | Species Li :   atomic orbital   2 s accepted.
  | Species Li :    hydro orbital   3 p accepted.
  | Species Li :    hydro orbital   2 p accepted.
  | Species Li :    hydro orbital   2 p accepted.
  | Species Li :    hydro orbital   3 d accepted.
  | Species Li :    hydro orbital   4 d accepted.
  | Species Li :    hydro orbital   4 f accepted.
 
  List of hydrogenic basis orbitals: 
    n    l      effective z      eigenvalue [eV]  inner max. [A]     outer max. [A]     outer radius [A]   
    2    1         1.600000        -8.7048           1.319365           1.319365           6.386418
    2    0         2.000000       -13.6052           0.203259           1.385485           6.232164
    3    2         2.600000       -10.2084           1.835332           1.835332           6.386418
    3    1         4.600000       -31.9883           0.343834           1.385485           5.381805
    2    1         1.800000       -11.0199           1.181903           1.181903           6.386418
    3    0         6.200000       -58.1113           0.062858           1.111823           4.371906
    4    2         4.700000       -18.7772           0.761113           2.401695           6.386418
    4    3         4.100000       -14.2833           2.073992           2.073992           6.386418
 

  Adding cutoff potential to free-atom effective potential.
  Creating atomic-like basis functions for current effective potential.

  Species Li                  :

  List of atomic basis orbitals and eigenvalues:
    n    l      energy [Ha]    energy [eV]    outer radius [A]
    1    0        -1.901473       -51.7417       4.318785
    2    0        -0.103132        -2.8064       6.464971

  Assembling full basis from fixed parts.
  | Species Li :   atomic orbital   1 s accepted.
  | Species Li :    hydro orbital   3 s accepted.
  | Species Li :    hydro orbital   2 s accepted.
  | Species Li :   atomic orbital   2 s accepted.
  | Species Li :    hydro orbital   3 p accepted.
  | Species Li :    hydro orbital   2 p accepted.
  | Species Li :    hydro orbital   2 p accepted.
  | Species Li :    hydro orbital   3 d accepted.
  | Species Li :    hydro orbital   4 d accepted.
  | Species Li :    hydro orbital   4 f accepted.

  Symmetry information by spglib:
  | Precision set to  0.1E-04
 
  Basis size parameters after reduction:
  | Total number of radial functions:       10
  | Total number of basis functions :       30
 
  Per-task memory consumption for arrays in subroutine allocate_ext:
  |           2.343624MB.
 
  Basis size parameters after reduction:
  | Total number of radial functions:       10
  | Total number of basis functions :       30
 
  Per-task memory consumption for arrays in subroutine allocate_ext:
  |           2.343624MB.

  List of occupied orbitals and eigenvalues:
    n    l              occ      energy [Ha]    energy [eV]
    1    0           2.0000        -1.901473       -51.7417
    2    0           1.0000        -0.103132        -2.8064

  Creating fixed part of basis set: Ionic, confined, hydrogenic.
 
  Li                   hydrogenic:
  Testing on-site integration grid accuracy.
  |  Species  Function  <phi|h_atom|phi> (log., in eV)  <phi|h_atom|phi> (rad., in eV)
           1        1                -51.7417001117                -51.7417000312
           1        2                 33.5927188637                 33.5926505054
  Testing on-site integration grid accuracy.
           1        3  |  Species  Function  <phi|h_atom|phi> (log., in eV)  <phi|h_atom|phi> (rad., in eV)
           1        1                -51.7417001117                 69.1469416012                -51.7417000312
           1        2                 69.1473382425                 33.5927188637                 33.5926505054
           1        3                 69.1469416012                 69.1473382425
           1        4                 48.8336153902
           1        4                 48.8810182289 ***
           1        5                 17.1749490570                 48.8336153902                 17.1749098864
           1        6                 32.1201183828                 48.8810182289 ***
           1        5                 32.1217831653
           1        7                  6.0166019876                  6.0249480535
           1        8                  4.9175332206                 17.1749490570                  4.9194842525
           1        9                 28.8010599263                 28.8011051086
           1       10                  9.9331480983                 17.1749098864                  9.9353515081
 * Note: Onsite integrals marked "***" above are less accurate than
 * onsite_accuracy_threshold =    0.03000 eV. Usually, this is harmless.
 * When in doubt, tighten the "radial" and/or "radial_multiplier" flags to check.


           1        6                 32.1201183828                 32.1217831653
           1        7                  6.0166019876                  6.0249480535
           1        8                  4.9175332206                  4.9194842525
           1        9                 28.8010599263                 28.8011051086
           1       10                  9.9331480983                  9.9353515081
 * Note: Onsite integrals marked "***" above are less accurate than
 * onsite_accuracy_threshold =    0.03000 eV. Usually, this is harmless.
 * When in doubt, tighten the "radial" and/or "radial_multiplier" flags to check.

  | Number of Operations  : 48
  | Space group           : 225
  | International         : Fm-3m
  | Schoenflies           : Oh^5

  Quantities derived from the lattice vectors:
  | Reciprocal lattice vector 1:  2.016610 -1.164291 -0.823278
  | Reciprocal lattice vector 2: -0.000000  2.328581 -0.823278
  | Reciprocal lattice vector 3: -0.000000 -0.000000  2.469833
  | Unit cell volume                               :   0.213874E+02  A^3

  Range separation radius for Ewald summation (hartree_convergence_parameter):      3.98394198 bohr.

  Fractional coordinates:
                         L1                L2                L3
       atom_frac         0.00000000        0.00000000        0.00000000  Li

  Number of empty states per atom not set in control.in - providing a guess from actual geometry.
  | Total number of empty states used during s.c.f. cycle:        2
  If you use a very high smearing, use empty_states (per atom!) in control.in to increase this value.

  Structure-dependent array size parameters: 
  | Maximum number of distinct radial functions  :       10
  | Maximum number of basis functions            :       30
  | Number of Kohn-Sham states (occupied + empty):        4
------------------------------------------------------------

------------------------------------------------------------
          Preparing all fixed parts of the calculation.
------------------------------------------------------------
  Determining machine precision:
 
[...]
  For ELPA, please cite:

    Andreas Marek, Volker Blum, Rainer Johanni, Ville Havu, Bruno Lang,
    Thomas Auckenthaler, Alexander Heinecke, Hans-Joachim Bungartz, and Hermann Lederer,
    'The ELPA Library - Scalable Parallel Eigenvalue Solutions
    for Electronic Structure Theory and Computational Science'
    The Journal of Physics: Condensed Matter 26, 213201 (2014).
    http://dx.doi.org/10.1088/0953-8984/26/21/213201


  The ELSI infrastructure was used in your run to solve the Kohn-Sham electronic structure.
  Please check out http://elsi-interchange.org to learn more.
  If scalability is important for your project, please acknowledge ELSI by citing:

    V. W-z. Yu, F. Corsetti, A. Garcia, W. P. Huhn, M. Jacquelin, W. Jia,
    B. Lange, L. Lin, J. Lu, W. Mi, A. Seifitokaldani, A. Vazquez-Mayagoitia,
    C. Yang, H. Yang, and V. Blum
    'ELSI: A unified software interface for Kohn-Sham electronic structure solvers'
    Computer Physics Communications 222, 267-285 (2018).
    http://dx.doi.org/10.1016/j.cpc.2017.09.007


  For the real-space grid partitioning and parallelization used in this calculation, please cite:

    Ville Havu, Volker Blum, Paula Havu, and Matthias Scheffler,
    'Efficient O(N) integration for all-electron electronic structure calculation'
    'using numerically tabulated basis functions'
    Journal of Computational Physics 228, 8367-8379 (2009).
    http://dx.doi.org/10.1016/j.jcp.2009.08.008

  Of course, there are many other important community references, e.g., those cited in the
  above references. Our list is limited to references that describe implementations in the
  FHI-aims code. The reason is purely practical (length of this list) - please credit others as well.

------------------------------------------------------------
          Leaving FHI-aims.
          Date     :  20220226, Time     :  223510.099

          Computational steps:
          | Number of self-consistency cycles          :           13
          | Number of SCF (re)initializations          :            1

          Detailed time accounting                     :  max(cpu_time)    wall_clock(cpu1)
          | Total time                                 :      319.828 s         324.598 s
          | Preparation time                           :        0.067 s           0.112 s
          | Boundary condition initalization           :        0.154 s           0.190 s
          | Grid partitioning                          :        0.104 s           0.119 s
          | Preloading free-atom quantities on grid    :        0.003 s           0.003 s
          | Free-atom superposition energy             :        0.137 s           0.144 s
          | Total time for integrations                :      111.754 s         112.843 s
          | Total time for solution of K.-S. equations :        1.193 s           1.255 s
          | Total time for density & force components  :      182.831 s         184.952 s
          | Total time for mixing & preconditioning    :        4.529 s           4.889 s
          | Total time for Hartree multipole update    :        0.018 s           0.019 s
          | Total time for Hartree multipole sum       :       17.754 s          18.701 s
          | Total time for total energy evaluation     :        0.002 s           0.011 s

          Partial memory accounting:
          | Residual value for overall tracked memory usage across tasks :           0.000 MB (should be 0.000 MB)
          | Peak values for overall tracked memory usage (after allocating gradient_basis_wave):
          |   Minimum:       39.097 MB (on task 1)
          |   Maximum:       39.097 MB (on task 1)
          |   Average:       39.097 MB
          | Largest tracked array allocation (hamiltonian_shell):
          |   Minimum:       29.430 MB (on task 1)
          |   Maximum:       29.430 MB (on task 1)
          |   Average:       29.430 MB
          Note:  These values currently only include a subset of arrays which are explicitly tracked.
          The "true" memory usage will be greater.

          Have a nice day.
------------------------------------------------------------
  Time summed over all CPUs for integration: real work        8.709 s, elapsed        8.709 s

  Updating Kohn-Sham eigenvalues and eigenvectors using ELSI and the ELPA eigensolver.
  Finished Cholesky decomposition
  | Time :     0.000 s
  Finished transformation to standard eigenproblem
  | Time :     0.000 s
  Starting LAPACK eigensolver
  Finished solving standard eigenproblem
  | Time :     0.000 s
  Finished back-transformation of eigenvectors
  | Time :     0.000 s

  Obtaining occupation numbers and chemical potential using ELSI.
  | Chemical potential (Fermi level):    -6.10743433eV
  What follows are estimated values for band gap, HOMO, LUMO, etc.
  | They are estimated on a discrete k-point grid and not necessarily exact.
  | For converged numbers, create a DOS and/or band structure plot on a denser k-grid.

  Highest occupied state (VBM) at     -6.11485645 eV (relative to internal zero)
  | Occupation number:      1.16627722
  | K-point:      52 at    0.600000    0.000000    0.600000 (in units of recip. lattice)

  Lowest unoccupied state (CBM) at    -5.68295537 eV (relative to internal zero)
  | Occupation number:      0.00000000
  | K-point:       5 at    0.000000    0.200000    0.600000 (in units of recip. lattice)

  ESTIMATED overall HOMO-LUMO gap:      0.43190108 eV between HOMO at k-point 52 and LUMO at k-point 5
  | This appears to be an indirect band gap.
  | Smallest direct gap :      4.74804344 eV for k_point 7 at    0.000000    0.200000    0.600000 (in units of recip. lattice)
  However, this system has fractional occupation numbers. Since we use a finite k-point grid,
  this material is metallic within the approximate finite broadening function (occupation_type)
  applied to determine the occupation numbers.

  Total energy components:
  | Sum of eigenvalues            :          -4.17365531 Ha        -113.57093949 eV
  | XC energy correction          :          -1.86160935 Ha         -50.65696777 eV
  | XC potential correction       :           2.38193670 Ha          64.81579527 eV
  | Free-atom electrostatic energy:          -3.88644915 Ha        -105.75566222 eV
  | Hartree energy correction     :           0.01697874 Ha           0.46201509 eV
  | Entropy correction            :          -0.00002434 Ha          -0.00066220 eV
  | ---------------------------
  | Total energy                  :          -7.52279838 Ha        -204.70575913 eV
  | Total energy, T -> 0          :          -7.52282271 Ha        -204.70642134 eV  <-- do not rely on this value for anything but (periodic) metals
  | Electronic free energy        :          -7.52284705 Ha        -204.70708354 eV

  Derived energy quantities:
  | Kinetic energy                :           7.45532095 Ha         202.86960505 eV
  | Electrostatic energy          :         -13.11650998 Ha        -356.91839641 eV
  | Energy correction for multipole
  | error in Hartree potential    :          -0.00001264 Ha          -0.00034390 eV
  | Sum of eigenvalues per atom                           :        -113.57093949 eV
  | Total energy (T->0) per atom                          :        -204.70642134 eV  <-- do not rely on this value for anything but (periodic) metals
  | Electronic free energy per atom                       :        -204.70708354 eV

  atomic forces [eV/Ang]:
  -----------------------
  atom #    1
   Hellmann-Feynman              : -0.920219E-12 -0.446026E-11  0.356360E-11
   Ionic forces                  :  0.000000E+00  0.000000E+00  0.000000E+00
   Multipole                     :  0.299206E-14  0.233612E-14  0.352301E-14
   Pulay + GGA                   :  0.000000E+00  0.000000E+00  0.000000E+00
   ----------------------------------------------------------------
   Total forces(   1)            : -0.917227E-12 -0.445793E-11  0.356712E-11


  Self-consistency convergence accuracy:
  | Change of charge density      :  0.7582E-10
  | Change of sum of eigenvalues  : -0.1465E-08 eV
  | Change of total energy        : -0.5800E-12 eV
  | Change of forces              :  0.5783E-11 eV/A

  Writing Kohn-Sham eigenvalues.
  K-point:       1 at    0.000000    0.000000    0.000000 (in units of recip. lattice)

  State    Occupation    Eigenvalue [Ha]    Eigenvalue [eV]
      1       2.00000          -1.944742          -52.91913
      2       2.00000          -0.361953           -9.84923
      3       0.00000           0.274436            7.46779
      4       0.00000           0.274439            7.46786

  What follows are estimated values for band gap, HOMO, LUMO, etc.
  | They are estimated on a discrete k-point grid and not necessarily exact.
  | For converged numbers, create a DOS and/or band structure plot on a denser k-grid.

  Highest occupied state (VBM) at     -6.11485645 eV (relative to internal zero)
  | Occupation number:      1.16627722
  | K-point:      52 at    0.600000    0.000000    0.600000 (in units of recip. lattice)

  Lowest unoccupied state (CBM) at    -5.68295537 eV (relative to internal zero)
  | Occupation number:      0.00000000
  | K-point:       5 at    0.000000    0.200000    0.600000 (in units of recip. lattice)

  ESTIMATED overall HOMO-LUMO gap:      0.43190108 eV between HOMO at k-point 52 and LUMO at k-point 5
  | This appears to be an indirect band gap.
  | Smallest direct gap :      4.74804344 eV for k_point 7 at    0.000000    0.200000    0.600000 (in units of recip. lattice)
  However, this system has fractional occupation numbers. Since we use a finite k-point grid,
  this material is metallic within the approximate finite broadening function (occupation_type)
  applied to determine the occupation numbers.

  Self-consistency cycle converged.

  End self-consistency iteration #    13       :  max(cpu_time)    wall_clock(cpu1)
  | Time for this iteration                    :       25.973 s          26.372 s
  | Charge density & force component update    :       13.682 s          13.732 s
  | Density mixing                             :        0.002 s           0.002 s
  | Hartree multipole update                   :        0.001 s           0.002 s
  | Hartree multipole summation                :        4.929 s           5.076 s
  | Integration                                :        7.290 s           7.492 s
  | Solution of K.-S. eqns.                    :        0.068 s           0.068 s
  | Total energy evaluation                    :        0.000 s           0.000 s

  Partial memory accounting:
  | Current value for overall tracked memory usage on task 0  :           3.315 MB
  | Peak value for overall tracked memory usage on task 0     :          39.097 MB after allocating gradient_basis_wave
  | Largest tracked array allocation on task 0 so far         :          29.430 MB  when allocating hamiltonian_shell
  Note:  These values currently only include a subset of arrays which are explicitly tracked.
  The "true" memory usage will be greater.
------------------------------------------------------------
  |------------------------------------------
  | Final ELSI Output
  |------------------------------------------
  | Number of basis functions :           30
  | Number of electrons       :          3.0
  | Number of states          :            4
  | Solver                    :         ELPA
  | Parallel mode             :  SINGLE_PROC
  | Matrix format             :  BLACS_DENSE
  |------------------------------------------
  | ELSI Project (c)  elsi-interchange.org
  |------------------------------------------
  Removing unitary transformations (pure translations, rotations) from forces on atoms.
  Atomic forces before filtering:
  | Net force on center of mass :  -0.917227E-12 -0.445793E-11  0.356712E-11 eV/A
  Atomic forces after filtering:
  | Net force on center of mass :   0.000000E+00  0.000000E+00  0.000000E+00 eV/A

  Energy and forces in a compact form:
  | Total energy uncorrected      :         -0.204705759132642E+03 eV
  | Total energy corrected        :         -0.204706421335277E+03 eV  <-- do not rely on this value for anything but (periodic) metals
  | Electronic free energy        :         -0.204707083537912E+03 eV
  Total atomic forces (unitary forces cleaned) [eV/Ang]:
  |   1          0.000000000000000E+00          0.000000000000000E+00          0.000000000000000E+00

  ------------------------------------ 
  Start decomposition of the XC Energy 
  ------------------------------------ 
  X and C from original XC functional choice 
  Hartree-Fock Energy :          0.000000000 Ha              0.000000000 eV
  X Energy            :         -1.782489533 Ha            -48.504008053 eV
  C Energy            :         -0.079119815 Ha             -2.152959719 eV
  Total XC Energy     :         -1.861609349 Ha            -50.656967772 eV
  ------------------------------------ 
  LDA X and C from self-consistent density 
  X Energy LDA        :         -1.576868583 Ha            -42.908777321 eV
  C Energy LDA        :         -0.171649975 Ha             -4.670833466 eV
  ------------------------------------ 
  End decomposition of the XC Energy 
  ------------------------------------ 

------------------------------------------------------------

------------------------------------------------------------------------------
  Final output of selected total energy values:

  The following output summarizes some interesting total energy values
  at the end of a run (AFTER all relaxation, molecular dynamics, etc.).

  | Total energy of the DFT / Hartree-Fock s.c.f. calculation      :           -204.705759133 eV
  | Final zero-broadening corrected energy (caution - metals only) :           -204.706421335 eV
  | For reference only, the value of 1 Hartree used in FHI-aims is :             27.211384500 eV

  Before relying on these values, please be sure to understand exactly which
  total energy value is referred to by a given number. Different objects may
  all carry the same name 'total energy'. Definitions:

  Total energy of the DFT / Hartree-Fock s.c.f. calculation:
  | Note that this energy does not include ANY quantities calculated after the
  | s.c.f. cycle, in particular not ANY RPA, MP2, etc. many-body perturbation terms.

  Final zero-broadening corrected energy:
  | For metallic systems only, a broadening of the occupation numbers at the Fermi
  | level can be extrapolated back to zero broadening by an electron-gas inspired
  | formula. For all systems that are not real metals, this value can be
  | meaningless and should be avoided.

------------------------------------------------------------------------------
  Methods described in the following list of references were used in this FHI-aims run.
  If you publish the results, please make sure to cite these reference if they apply.
  FHI-aims is an academic code, and for our developers (often, Ph.D. students
  and postdocs), scientific credit in the community is essential.
  Thank you for helping us!

  For any use of FHI-aims, please cite:

    Volker Blum, Ralf Gehrke, Felix Hanke, Paula Havu, Ville Havu,
    Xinguo Ren, Karsten Reuter, and Matthias Scheffler
    'Ab initio molecular simulations with numeric atom-centered orbitals'
    Computer Physics Communications 180, 2175-2196 (2009)
    http://dx.doi.org/10.1016/j.cpc.2009.06.022


  The provided symmetry information was generated with SPGlib:

    Atsushi Togo, Yusuke Seto, Dimitar Pashov
    SPGlib 1.7.3 obtained from http://spglib.sourceforge.net
    Copyright (C) 2008 Atsushi Togo


  The scalable eigensolver library ELPA was used in your run.
  ELPA is essential especially for large systems on hundreds or thousands of CPUs.
  For ELPA, please cite:

    Andreas Marek, Volker Blum, Rainer Johanni, Ville Havu, Bruno Lang,
    Thomas Auckenthaler, Alexander Heinecke, Hans-Joachim Bungartz, and Hermann Lederer,
    'The ELPA Library - Scalable Parallel Eigenvalue Solutions
    for Electronic Structure Theory and Computational Science'
    The Journal of Physics: Condensed Matter 26, 213201 (2014).
    http://dx.doi.org/10.1088/0953-8984/26/21/213201


  The ELSI infrastructure was used in your run to solve the Kohn-Sham electronic structure.
  Please check out http://elsi-interchange.org to learn more.
  If scalability is important for your project, please acknowledge ELSI by citing:

    V. W-z. Yu, F. Corsetti, A. Garcia, W. P. Huhn, M. Jacquelin, W. Jia,
    B. Lange, L. Lin, J. Lu, W. Mi, A. Seifitokaldani, A. Vazquez-Mayagoitia,
    C. Yang, H. Yang, and V. Blum
    'ELSI: A unified software interface for Kohn-Sham electronic structure solvers'
    Computer Physics Communications 222, 267-285 (2018).
    http://dx.doi.org/10.1016/j.cpc.2017.09.007


  For the real-space grid partitioning and parallelization used in this calculation, please cite:

    Ville Havu, Volker Blum, Paula Havu, and Matthias Scheffler,
    'Efficient O(N) integration for all-electron electronic structure calculation'
    'using numerically tabulated basis functions'
    Journal of Computational Physics 228, 8367-8379 (2009).
    http://dx.doi.org/10.1016/j.jcp.2009.08.008

  Of course, there are many other important community references, e.g., those cited in the
  above references. Our list is limited to references that describe implementations in the
  FHI-aims code. The reason is purely practical (length of this list) - please credit others as well.

------------------------------------------------------------
          Leaving FHI-aims.
          Date     :  20220226, Time     :  223511.157

          Computational steps:
          | Number of self-consistency cycles          :           13
          | Number of SCF (re)initializations          :            1

          Detailed time accounting                     :  max(cpu_time)    wall_clock(cpu1)
          | Total time                                 :      319.962 s         325.656 s
          | Preparation time                           :        0.068 s           0.073 s
          | Boundary condition initalization           :        0.155 s           0.158 s
          | Grid partitioning                          :        0.108 s           0.110 s
          | Preloading free-atom quantities on grid    :        0.004 s           0.003 s
          | Free-atom superposition energy             :        0.164 s           0.185 s
          | Total time for integrations                :      112.090 s         114.244 s
          | Total time for solution of K.-S. equations :        1.177 s           1.244 s
          | Total time for density & force components  :      179.461 s         182.104 s
          | Total time for mixing & preconditioning    :        5.186 s           5.383 s
          | Total time for Hartree multipole update    :        0.021 s           0.023 s
          | Total time for Hartree multipole sum       :       20.255 s          20.728 s
          | Total time for total energy evaluation     :        0.002 s           0.009 s

          Partial memory accounting:
          | Residual value for overall tracked memory usage across tasks :           0.000 MB (should be 0.000 MB)
          | Peak values for overall tracked memory usage (after allocating gradient_basis_wave):
          |   Minimum:       39.097 MB (on task 1)
          |   Maximum:       39.097 MB (on task 1)
          |   Average:       39.097 MB
          | Largest tracked array allocation (hamiltonian_shell):
          |   Minimum:       29.430 MB (on task 1)
          |   Maximum:       29.430 MB (on task 1)
          |   Average:       29.430 MB
          Note:  These values currently only include a subset of arrays which are explicitly tracked.
          The "true" memory usage will be greater.

          Have a nice day.
------------------------------------------------------------
