  MPI-parallelism will be employed.
------------------------------------------------------------
          Invoking FHI-aims ...
          Version 171221_1
          Compiled on 2020/09/23 at 19:46:43 on host login.service.

          When using FHI-aims, please cite the following reference:

          Volker Blum, Ralf Gehrke, Felix Hanke, Paula Havu,
          Ville Havu, Xinguo Ren, Karsten Reuter, and Matthias Scheffler,
          'Ab Initio Molecular Simulations with Numeric Atom-Centered Orbitals',
          Computer Physics Communications 180, 2175-2196 (2009)

          For any questions about FHI-aims, please visit the aimsclub website
          with its forums and wiki. Contributions to both the forums and the
          wiki are warmly encouraged - they are for you, and everyone is welcome there.

------------------------------------------------------------



  Date     :  20220723, Time     :  170106.474
  Time zero on CPU 1             :   0.851980000000000E-01  s.
  Internal wall clock time zero  :           427827666.474  s.

  FHI-aims created a unique identifier for this run for later identification
  aims_uuid : A6AA8044-BD00-442D-A558-E06A388EE16A

  Using       20 parallel tasks.
  Task        0 on host node043 reporting.
  Task        1 on host node043 reporting.
  Task        2 on host node043 reporting.
  Task        3 on host node043 reporting.
  Task        4 on host node043 reporting.
  Task        5 on host node043 reporting.
  Task        6 on host node043 reporting.
  Task        7 on host node043 reporting.
  Task        8 on host node043 reporting.
  Task        9 on host node043 reporting.
  Task       10 on host node043 reporting.
  Task       11 on host node043 reporting.
  Task       12 on host node043 reporting.
  Task       13 on host node043 reporting.
  Task       14 on host node043 reporting.
  Task       15 on host node043 reporting.
  Task       16 on host node043 reporting.
  Task       17 on host node043 reporting.
  Task       18 on host node043 reporting.
  Task       19 on host node043 reporting.

  Performing system and environment tests:
  *** Environment variable OMP_NUM_THREADS is not set
  *** For performance reasons you might want to set it to 1
  | Maximum stacksize for task 0: unlimited
  | Maximum stacksize for task 1: unlimited
  | Maximum stacksize for task 2: unlimited
  | Maximum stacksize for task 3: unlimited
  | Maximum stacksize for task 4: unlimited
  | Maximum stacksize for task 5: unlimited
  | Maximum stacksize for task 6: unlimited
  | Maximum stacksize for task 7: unlimited
  | Maximum stacksize for task 8: unlimited
  | Maximum stacksize for task 9: unlimited
  | Maximum stacksize for task 10: unlimited
  | Maximum stacksize for task 11: unlimited
  | Maximum stacksize for task 12: unlimited
  | Maximum stacksize for task 13: unlimited
  | Maximum stacksize for task 14: unlimited
  | Maximum stacksize for task 15: unlimited
  | Maximum stacksize for task 16: unlimited
  | Maximum stacksize for task 17: unlimited
  | Maximum stacksize for task 18: unlimited
  | Maximum stacksize for task 19: unlimited
  | Current stacksize for task 0: unlimited
  | Current stacksize for task 1: unlimited
  | Current stacksize for task 2: unlimited
  | Current stacksize for task 3: unlimited
  | Current stacksize for task 4: unlimited
  | Current stacksize for task 5: unlimited
  | Current stacksize for task 6: unlimited
  | Current stacksize for task 7: unlimited
  | Current stacksize for task 8: unlimited
  | Current stacksize for task 9: unlimited
  | Current stacksize for task 10: unlimited
  | Current stacksize for task 11: unlimited
  | Current stacksize for task 12: unlimited
  | Current stacksize for task 13: unlimited
  | Current stacksize for task 14: unlimited
  | Current stacksize for task 15: unlimited
  | Current stacksize for task 16: unlimited
  | Current stacksize for task 17: unlimited
  | Current stacksize for task 18: unlimited
  | Current stacksize for task 19: unlimited
  | Checking for scalapack...
  | Testing pdtran()...
  | All pdtran() tests passed.

  Obtaining array dimensions for all initial allocations:
  
  -----------------------------------------------------------------------
  Parsing control.in (first pass over file, find array dimensions only).
  The contents of control.in will be repeated verbatim below
  unless switched off by setting 'verbatim_writeout .false.' .
  in the first line of control.in .
  -----------------------------------------------------------------------
  
  #===============================================================================
  # FHI-aims file: ./control.in
  # Created using the Atomic Simulation Environment (ASE)
  # Wed Mar 24 12:41:28 2021
  #===============================================================================
  xc                                 pbe
  sc_accuracy_etot                   1e-06
  sc_accuracy_eev                    0.001
  sc_accuracy_rho                    1e-06
  sc_accuracy_forces                 0.0001
  friction_temperature               300  # default 300
  
    k_grid                           3  3  3
  
  
  ################################################################################
  #
  #  FHI-aims code project
  #  VB, Fritz-Haber Institut, 2009
  #
  #  Suggested "light" defaults for Li atom (to be pasted into control.in file)
  #  Be sure to double-check any results obtained with these settings for post-processing,
  #  e.g., with the "tight" defaults and larger basis sets.
  #
  ################################################################################
    species        Li
  #     global species definitions
      nucleus             3
      mass                6.941
  #
      l_hartree           4
  #
      cut_pot             3.5  1.5  1.0
      basis_dep_cutoff    1e-4
  #
      radial_base         29 5.0
      radial_multiplier   1
      angular_grids       specified
        division   0.4484  110
        division   0.5659  194
        division   0.6315  302
  #      division   0.6662  434
  #      division   0.8186  590
  #      division   0.9037  770
  #      division   6.2760  974
  #      outer_grid   974
        outer_grid   302
  ################################################################################
  #
  #  Definition of "minimal" basis
  #
  ################################################################################
  #     valence basis states
      valence      2  s   1.
  #     ion occupancy
      ion_occ      1  s   2.
  ################################################################################
  #
  #  Suggested additional basis functions. For production calculations,
  #  uncomment them one after another (the most important basis functions are
  #  listed first).
  #
  #  Constructed for dimers: 1.80 A, 2.25 A, 2.75 A, 3.50 A, 4.50 A
  #
  ################################################################################
  #  "First tier" - improvements: -189.23 meV to -6.35 meV
       hydro 2 p 1.6
       hydro 2 s 2
       hydro 3 d 2.6
  #  "Second tier" - improvements: -4.69 meV to -0.41 meV
  #     hydro 3 p 4.6
  #     hydro 2 p 1.8
  #     hydro 3 s 6.2
  #     hydro 4 d 4.7
  #     hydro 4 f 4.1
  #  "Third tier" - improvements: -0.20 meV to -0.15 meV
  #     hydro 4 d 0.95
  #     hydro 3 p 6.2
  #     hydro 3 s 1.7
  #  Further functions, listed for completeness
  #     VB: The following functions are only listed for completeness; test very
  #         carefully before any kind of production use. From the point of view
  #         of the basis construction, their main role is to fill up space,
  #         and they are solely determined by the location of the cutoff potential.
  #     hydro 3 p 0.1  # -0.15 meV
  #     hydro 4 d 5    # -0.12 meV
  #     hydro 4 f 0.1  # -0.14 meV
  #     hydro 5 g 0.1  # -0.06 meV
  
  
  ################################################################################
  #
  #  FHI-aims code project
  #  VB, Fritz-Haber Institut, 2010
  #
  #  Suggested "light" defaults for P atom (to be pasted into control.in file)
  #  Be sure to double-check any results obtained with these settings for post-processing,
  #  e.g., with the "tight" defaults and larger basis sets.
  #
  ################################################################################
    species        P
  #     global species definitions
      nucleus             15
      mass                30.973762
  #
      l_hartree           4
  #
      cut_pot             3.5          1.5  1.0
      basis_dep_cutoff    1e-4
  #
      radial_base         43 5.0
      radial_multiplier   1
      angular_grids       specified
        division   0.5527   50
        division   0.8801  110
        division   1.1447  194
        division   1.3165  302
  #      division   1.4113  434
  #      division   1.4781  590
  #      division   1.5482  770
  #      division   1.5845  974
  #      division   2.2606 1202
        outer_grid  302
  ################################################################################
  #
  #  Definition of "minimal" basis
  #
  ################################################################################
  #     valence basis states
      valence      3  s   2.
      valence      3  p   3.
  #     ion occupancy
      ion_occ      3  s   1.
      ion_occ      3  p   2.
  ################################################################################
  #
  #  Suggested additional basis functions. For production calculations,
  #  uncomment them one after another (the most important basis functions are
  #  listed first).
  #
  #  Constructed for dimers: 1.625 A, 1.875 A, 2.5 A, 3.25 A, 4.0 A
  #
  ################################################################################
  #  "First tier" - improvements: -726.20 meV to -35.91 meV
       ionic 3 d auto
       ionic 3 p auto
  #     hydro 4 f 6.2
  #     hydro 5 g 8.6
       ionic 3 s auto
  #  "Second tier" - improvements: -16.02 meV to -1.71 meV
  #     hydro 4 d 6.2
  #     hydro 4 p 9.2
  #     hydro 5 f 9.8
  #     hydro 1 s 0.7
  #     hydro 5 g 13.2
  #  "Third tier" - improvements: -1.82 meV to -0.20 meV
  #     hydro 3 p 2.5
  #     hydro 4 d 6.4
  #     hydro 5 f 11.2
  #     hydro 2 s 1.5
  #  "Fourth tier" - improvements: -0.91 meV to -0.17 meV
  #     hydro 3 d 16.8
  #     hydro 5 g 18
  #     hydro 4 p 4.5
  #     hydro 3 s 2.1
  #  Further basis functions that fell out of the optimization - < -0.09 meV
  #     hydro 4 p 10.4
  #     hydro 4 d 17.6
  #     hydro 4 s 11.2
  ################################################################################
  #
  #  FHI-aims code project
  #  VB, Fritz-Haber Institut, 2009
  #
  #  Suggested "light" defaults for S atom (to be pasted into control.in file)
  #  Be sure to double-check any results obtained with these settings for post-processing,
  #  e.g., with the "tight" defaults and larger basis sets.
  #
  ################################################################################
    species        S
  #     global species definitions
      nucleus             16
      mass                32.065
  #
      l_hartree           4
  #
      cut_pot             3.5          1.5  1.0
      basis_dep_cutoff    1e-4
  #
      radial_base         44 5.0
      radial_multiplier   1
      angular_grids       specified
        division   0.4665  110
        division   0.5810  194
        division   0.7139  302
  #      division   0.8274  434
  #      division   0.9105  590
  #      division   1.0975  770
  #      division   1.2028  974
  #      outer_grid  974
        outer_grid  302
  ################################################################################
  #
  #  Definition of "minimal" basis
  #
  ################################################################################
  #     valence basis states
      valence      3  s   2.
      valence      3  p   4.
  #     ion occupancy
      ion_occ      3  s   1.
      ion_occ      3  p   3.
  ################################################################################
  #
  #  Suggested additional basis functions. For production calculations,
  #  uncomment them one after another (the most important basis functions are
  #  listed first).
  #
  #  Constructed for dimers: 1.6 A, 1.9 A, 2.5 A, 3.25 A, 4.0 A
  #
  ################################################################################
  #  "First tier" - improvements: -652.81 meV to -45.53 meV
       ionic 3 d auto
       hydro 2 p 1.8
  #     hydro 4 f 7
       ionic 3 s auto
  #  "Second tier" - improvements: -30.20 meV to -1.74 meV
  #     hydro 4 d 6.2
  #     hydro 5 g 10.8
  #     hydro 4 p 4.9
  #     hydro 5 f 10
  #     hydro 1 s 0.8
  #  "Third tier" - improvements: -1.04 meV to -0.20 meV
  #     hydro 3 d 3.9
  #     hydro 3 d 2.7
  #     hydro 5 g 12
  #     hydro 4 p 10.4
  #     hydro 5 f 12.4
  #     hydro 2 s 1.9
  #  "Fourth tier" - improvements: -0.35 meV to -0.06 meV
  #     hydro 4 d 10.4
  #     hydro 4 p 7.2
  #     hydro 4 d 10
  #     hydro 5 g 19.2
  #     hydro 4 s 12
  
  ################################################################################
  #
  #  FHI-aims code project
  #  VB, Fritz-Haber Institut, 2009
  #
  #  Suggested "light" defaults for Cl atom (to be pasted into control.in file)
  #  Be sure to double-check any results obtained with these settings for post-processing,
  #  e.g., with the "tight" defaults and larger basis sets.
  #
  ################################################################################
    species        Cl
  #     global species definitions
      nucleus             17
      mass                35.453
  #
      l_hartree           4
  #
      cut_pot             3.5          1.5  1.0
      basis_dep_cutoff    1e-4
  #
      radial_base         45 5.0
      radial_multiplier   1
      angular_grids       specified
        division   0.4412  110
        division   0.5489  194
        division   0.6734  302
  #      division   0.7794  434
  #      division   0.9402  590
  #      division   1.0779  770
  #      division   1.1792  974
  #      outer_grid  974
        outer_grid  302
  ################################################################################
  #
  #  Definition of "minimal" basis
  #
  ################################################################################
  #     valence basis states
      valence      3  s   2.
      valence      3  p   5.
  #     ion occupancy
      ion_occ      3  s   1.
      ion_occ      3  p   4.
  ################################################################################
  #
  #  Suggested additional basis functions. For production calculations,
  #  uncomment them one after another (the most important basis functions are
  #  listed first).
  #
  #  Constructed for dimers: 1.65 A, 2.0 A, 2.5 A, 3.25 A, 4.0 A
  #
  ################################################################################
  #  "First tier" - improvements: -429.57 meV to -15.03 meV
       ionic 3 d auto
       hydro 2 p 1.9
  #     hydro 4 f 7.4
       ionic 3 s auto
  #     hydro 5 g 10.4
  #  "Second tier" - improvements: -7.84 meV to -0.48 meV
  #     hydro 3 d 3.3
  #     hydro 5 f 9.8
  #     hydro 1 s 0.75
  #     hydro 5 g 11.2
  #     hydro 4 p 10.4
  #  "Third tier" - improvements: -1.00 meV to -0.12 meV
  #     hydro 4 d 12.8
  #     hydro 4 f 4.6
  #     hydro 4 d 10.8
  #     hydro 2 s 1.8
  #     hydro 3 p 3
  #  Further functions that fell out - improvements: -0.10 meV and below
  #     hydro 5 f 14.4
  #     hydro 4 s 12.8
  #     hydro 3 d 11.6
  #     hydro 4 s 4.1
  
  -----------------------------------------------------------------------
  Completed first pass over input file control.in .
  -----------------------------------------------------------------------
  
  
  -----------------------------------------------------------------------
  Parsing geometry.in (first pass over file, find array dimensions only).
  The contents of geometry.in will be repeated verbatim below
  unless switched off by setting 'verbatim_writeout .false.' .
  in the first line of geometry.in .
  -----------------------------------------------------------------------
  
  #=======================================================
  # FHI-aims file: geometry.in.2
  # Created using the Atomic Simulation Environment (ASE)
  # Sat Jul 23 22:56:02 2022
  #=======================================================
  lattice_vector 9.8979997634999997 0.0000000000000000 0.0000000000000000
  lattice_vector 0.0000000000000000 9.8979997634999997 0.0000000000000000
  lattice_vector 0.0000000000000000 0.0000000000000000 9.8979997634999997
  atom 3.0246025799999998 0.1565706000000000 6.8348262100000001 Li
  atom 3.6132742800000002 0.0849109200000000 2.7478732199999998 Li
  atom 6.8555621400000000 3.1757894100000001 0.3972202700000000 Li
  atom 6.8264523199999996 6.7344810600000002 -0.1111986700000000 Li
  atom 0.3412253600000000 6.6818888899999997 3.0810442999999998 Li
  atom 9.4809659899999996 6.6090327300000000 6.9415263700000001 Li
  atom -0.0320496500000000 2.9156503900000001 6.5762248599999999 Li
  atom 3.5869995299999999 6.3048334500000003 3.8029373600000000 Li
  atom 6.6839709999999997 8.1016367299999992 5.0361097600000004 Li
  atom 5.3072678700000004 2.1531402100000001 2.6726260800000001 Li
  atom 1.2732885800000000 8.7080041200000000 3.7790273100000000 Li
  atom 0.3168621700000000 2.2225147299999999 2.1319543699999999 Li
  atom 7.7557064300000000 -0.1498407300000000 1.6512521700000000 Li
  atom 8.1969083200000004 9.9612328899999998 8.0431511199999992 Li
  atom 2.0702986900000000 6.4519492999999999 7.3402019100000002 Li
  atom 5.8660012699999999 5.5674668599999997 7.1783454000000004 Li
  atom 7.4336575500000004 5.2833315000000001 4.5597201700000003 Li
  atom 0.3914599600000000 8.6690477000000001 2.3935088900000001 Li
  atom 1.6613032100000000 1.9704757100000001 9.5516996499999998 Li
  atom 4.7059123100000004 6.8789789399999997 5.0722046499999998 Li
  atom 0.0081609400000000 -0.0117910800000000 4.9183067100000004 P
  atom 4.8929847700000000 0.0604535500000000 -0.1340192100000000 P
  atom 0.0510094800000000 4.9893822999999999 0.0778722500000000 P
  atom 5.0572051599999996 4.8714473600000003 4.8181855200000001 P
  atom 1.1506171900000000 8.6423898000000001 6.1007710299999998 S
  atom 8.5965499100000002 1.1064078399999999 6.0562356599999996 S
  atom 8.7270295299999994 8.6827929800000003 3.7217594799999998 S
  atom 1.2663170600000000 1.2297058400000000 3.8762679599999998 S
  atom 6.0772003500000000 1.2928268100000000 8.5947161600000008 S
  atom 6.0123846099999998 8.7370763300000007 1.0684056000000000 S
  atom 3.6762799500000001 8.7763089999999995 8.5710134799999995 S
  atom 3.6969616500000000 1.2906963800000000 0.9734614900000000 S
  atom 8.7234750499999993 5.9582073900000001 1.4445069200000000 S
  atom 1.0654511799999999 6.3104565099999999 8.8024172800000002 S
  atom 8.7537265499999997 3.7811655000000002 8.8385333399999997 S
  atom 1.4207658599999999 3.8797812999999999 1.1628748400000000 S
  atom 6.0818337600000003 6.2506537399999997 3.7186957999999999 S
  atom 6.3250500100000000 3.7921890700000001 6.0115254000000000 S
  atom 4.0858136099999998 3.6118473199999999 3.5268009100000000 S
  atom 3.6289256399999998 5.7602658299999998 6.0479883399999999 S
  atom 2.3668205900000001 2.4936749499999999 7.2540696999999996 Cl
  atom 7.3134333600000003 7.5393838000000004 7.4843314599999999 Cl
  atom 4.7367071799999998 -0.2327336200000000 4.8929528400000004 Cl
  atom 5.1615237900000004 5.0305814000000000 -0.2583427600000000 Cl
  atom -0.0497286300000000 0.2602403500000000 0.1663799400000000 Cl
  atom 0.0300422700000000 4.9570735299999997 5.0233017999999996 Cl
  atom 7.5963873000000000 2.3519079600000001 2.4720184900000000 Cl
  atom 2.4716053100000002 7.5248888599999999 2.4620893100000001 Cl
  
  -----------------------------------------------------------------------
  Completed first pass over input file geometry.in .
  -----------------------------------------------------------------------
  

  Basic array size parameters:
  | Number of species                 :        4
  | Number of atoms                   :       48
  | Number of lattice vectors         :        3
  | Max. basis fn. angular momentum   :        2
  | Max. atomic/ionic basis occupied n:        3
  | Max. number of basis fn. types    :        3
  | Max. radial fns per species/type  :        5
  | Max. logarithmic grid size        :     1362
  | Max. radial integration grid size :       45
  | Max. angular integration grid size:      302
  | Max. angular grid division number :        8
  | Radial grid for Hartree potential :     1362
  | Number of spin channels           :        1

------------------------------------------------------------
          Reading file control.in.
------------------------------------------------------------
  XC: Using PBE gradient-corrected functionals.
  Convergence accuracy of total energy:  0.1000E-05
  Convergence accuracy of sum of eigenvalues:  0.1000E-02
  Convergence accuracy of self-consistent charge density:  0.1000E-05
  Convergence accuracy of forces:  0.1000E-03
  Friction is calculated at temperature of   0.3000E+03 K
  Found k-point grid:         3         3         3
 
  Reading configuration options for species Li                  .
  | Found nuclear charge :   3.0000
  | Found atomic mass :    6.94100000000000      amu
  | Found l_max for Hartree potential  :   4
  | Found cutoff potl. onset [A], width [A], scale factor :    3.50000    1.50000    1.00000
  | Threshold for basis-dependent cutoff potential is   0.100000E-03
  | Found data for basic radial integration grid :    29 points, outermost radius =    5.000 A
  | Found multiplier for basic radial grid :   1
  | Found angular grid specification: user-specified.
  | Specified grid contains     4 separate shells.
  | Check grid settings after all constraints further below.
  | Found free-atom valence shell :  2 s   1.000
  | Found free-ion valence shell :  1 s   2.000
  | Found hydrogenic basis function :  2 p   1.600
  | Found hydrogenic basis function :  2 s   2.000
  | Found hydrogenic basis function :  3 d   2.600
  Species Li                  : Missing cutoff potential type.
  Defaulting to exp(1/x)/(1-x)^2 type cutoff potential.
  Species Li: No 'logarithmic' tag. Using default grid for free atom:
  | Default logarithmic grid data [bohr] : 0.1000E-03 0.1000E+03 0.1012E+01
  Species Li: On-site basis accuracy parameter (for Gram-Schmidt orthonormalisation) not specified.
  Using default value basis_acc =  0.1000000E-03.
  Species Li                  : Using default innermost maximum threshold i_radial=  2 for radial functions.
  Species Li                  : Default cutoff onset for free atom density etc. : 0.35000000E+01 AA.
  Species Li                  : Basic radial grid will be enhanced according to radial_multiplier =   1, to contain    29 grid points.
 
  Reading configuration options for species P                   .
  | Found nuclear charge :  15.0000
  | Found atomic mass :    30.9737620000000      amu
  | Found l_max for Hartree potential  :   4
  | Found cutoff potl. onset [A], width [A], scale factor :    3.50000    1.50000    1.00000
  | Threshold for basis-dependent cutoff potential is   0.100000E-03
  | Found data for basic radial integration grid :    43 points, outermost radius =    5.000 A
  | Found multiplier for basic radial grid :   1
  | Found angular grid specification: user-specified.
  | Specified grid contains     5 separate shells.
  | Check grid settings after all constraints further below.
  | Found free-atom valence shell :  3 s   2.000
  | Found free-atom valence shell :  3 p   3.000
  | Found free-ion valence shell :  3 s   1.000
  | Found free-ion valence shell :  3 p   2.000
  | Found ionic basis function :  3 d , default cutoff radius.
  | Found ionic basis function :  3 p , default cutoff radius.
  | Found ionic basis function :  3 s , default cutoff radius.
  Species P                   : Missing cutoff potential type.
  Defaulting to exp(1/x)/(1-x)^2 type cutoff potential.
  Species P : No 'logarithmic' tag. Using default grid for free atom:
  | Default logarithmic grid data [bohr] : 0.1000E-03 0.1000E+03 0.1012E+01
  | Will include ionic basis functions of  2.0-fold positive P                    ion.
  Species P : On-site basis accuracy parameter (for Gram-Schmidt orthonormalisation) not specified.
  Using default value basis_acc =  0.1000000E-03.
  Species P                   : Using default innermost maximum threshold i_radial=  2 for radial functions.
  Species P                   : Default cutoff onset for free atom density etc. : 0.35000000E+01 AA.
  Species P                   : Basic radial grid will be enhanced according to radial_multiplier =   1, to contain    43 grid points.
 
  Reading configuration options for species S                   .
  | Found nuclear charge :  16.0000
  | Found atomic mass :    32.0650000000000      amu
  | Found l_max for Hartree potential  :   4
  | Found cutoff potl. onset [A], width [A], scale factor :    3.50000    1.50000    1.00000
  | Threshold for basis-dependent cutoff potential is   0.100000E-03
  | Found data for basic radial integration grid :    44 points, outermost radius =    5.000 A
  | Found multiplier for basic radial grid :   1
  | Found angular grid specification: user-specified.
  | Specified grid contains     4 separate shells.
  | Check grid settings after all constraints further below.
  | Found free-atom valence shell :  3 s   2.000
  | Found free-atom valence shell :  3 p   4.000
  | Found free-ion valence shell :  3 s   1.000
  | Found free-ion valence shell :  3 p   3.000
  | Found ionic basis function :  3 d , default cutoff radius.
  | Found hydrogenic basis function :  2 p   1.800
  | Found ionic basis function :  3 s , default cutoff radius.
  Species S                   : Missing cutoff potential type.
  Defaulting to exp(1/x)/(1-x)^2 type cutoff potential.
  Species S : No 'logarithmic' tag. Using default grid for free atom:
  | Default logarithmic grid data [bohr] : 0.1000E-03 0.1000E+03 0.1012E+01
  | Will include ionic basis functions of  2.0-fold positive S                    ion.
  Species S : On-site basis accuracy parameter (for Gram-Schmidt orthonormalisation) not specified.
  Using default value basis_acc =  0.1000000E-03.
  Species S                   : Using default innermost maximum threshold i_radial=  2 for radial functions.
  Species S                   : Default cutoff onset for free atom density etc. : 0.35000000E+01 AA.
  Species S                   : Basic radial grid will be enhanced according to radial_multiplier =   1, to contain    44 grid points.
 
  Reading configuration options for species Cl                  .
  | Found nuclear charge :  17.0000
  | Found atomic mass :    35.4530000000000      amu
  | Found l_max for Hartree potential  :   4
  | Found cutoff potl. onset [A], width [A], scale factor :    3.50000    1.50000    1.00000
  | Threshold for basis-dependent cutoff potential is   0.100000E-03
  | Found data for basic radial integration grid :    45 points, outermost radius =    5.000 A
  | Found multiplier for basic radial grid :   1
  | Found angular grid specification: user-specified.
  | Specified grid contains     4 separate shells.
  | Check grid settings after all constraints further below.
  | Found free-atom valence shell :  3 s   2.000
  | Found free-atom valence shell :  3 p   5.000
  | Found free-ion valence shell :  3 s   1.000
  | Found free-ion valence shell :  3 p   4.000
  | Found ionic basis function :  3 d , default cutoff radius.
  | Found hydrogenic basis function :  2 p   1.900
  | Found ionic basis function :  3 s , default cutoff radius.
  Species Cl                  : Missing cutoff potential type.
  Defaulting to exp(1/x)/(1-x)^2 type cutoff potential.
  Species Cl: No 'logarithmic' tag. Using default grid for free atom:
  | Default logarithmic grid data [bohr] : 0.1000E-03 0.1000E+03 0.1012E+01
  | Will include ionic basis functions of  2.0-fold positive Cl                   ion.
  Species Cl: On-site basis accuracy parameter (for Gram-Schmidt orthonormalisation) not specified.
  Using default value basis_acc =  0.1000000E-03.
  Species Cl                  : Using default innermost maximum threshold i_radial=  2 for radial functions.
  Species Cl                  : Default cutoff onset for free atom density etc. : 0.35000000E+01 AA.
  Species Cl                  : Basic radial grid will be enhanced according to radial_multiplier =   1, to contain    45 grid points.
 
  Finished reading input file 'control.in'. Consistency checks are next.
 
  MPI_IN_PLACE appears to work with this MPI implementation.
  | Keeping use_mpi_in_place .true. (see manual).
  Target number of points in a grid batch is not set. Defaulting to  100
  Method for grid partitioning is not set. Defaulting to parallel hash+maxmin partitioning.
  Batch size limit is not set. Defaulting to    200
  By default, will store active basis functions for each batch.
  If in need of memory, prune_basis_once .false. can be used to disable this option.
  communication_type for Hartree potential was not specified.
  Defaulting to calc_hartree .
  Defaulting to Pulay charge density mixer.
  Pulay mixer: Number of relevant iterations not set.
  Defaulting to    8 iterations.
  Pulay mixer: Number of initial linear mixing iterations not set.
  Defaulting to    0 iterations.
  Work space size for distributed Hartree potential not set.
  Defaulting to   0.200000E+03 MB.
  Mixing parameter for charge density mixing has not been set.
  Using default: charge_mix_param =     0.0500.
  The mixing parameter will be adjusted in iteration number     2 of the first full s.c.f. cycle only.
  Algorithm-dependent basis array size parameters:
  | n_max_pulay                         :        8
  Maximum number of self-consistency iterations not provided.
  Presetting  1000 iterations.
  Presetting      1001 iterations before the initial mixing cycle
  is restarted anyway using the sc_init_iter criterion / keyword.
  Presetting a factor      1.000 between actual scf density residual
  and density convergence criterion sc_accuracy_rho below which sc_init_iter
  takes no effect.
  Geometry relaxation not requested: no relaxation will be performed.
  Handling of forces: Unphysical translation and rotation will be removed from forces.
  No accuracy limit for integral partition fn. given. Defaulting to  0.1000E-14.
  No threshold value for u(r) in integrations given. Defaulting to  0.1000E-05.
  No occupation type (smearing scheme) given. Defaulting to Gaussian broadening, width =  0.1000E-01 eV.
  The width will be adjusted in iteration number     2 of the first full s.c.f. cycle only.
  S.C.F. convergence parameters will be adjusted in iteration number     2 of the first full s.c.f. cycle only.
  No accuracy for occupation numbers given. Defaulting to  0.1000E-12.
  No threshold value for occupation numbers given. Defaulting to  0.0000E+00.
  No accuracy for fermi level given. Defaulting to  0.1000E-19.
  Maximum # of iterations to find E_F not set. Defaulting to  200.
  Preferred method for the eigenvalue solver ('KS_method') not specified in 'control.in'.
  Defaulting to serial version, 'lapack_fast', since more k-points than CPUs available.
  Will not use alltoall communication since running on < 1024 CPUs.
  Threshold for basis singularities not set.
  Default threshold for basis singularities:  0.1000E-04
  partition_type (choice of integration weights) for integrals was not specified.
  | Using a version of the partition function of Stratmann and coworkers ('stratmann_smoother').
  | At each grid point, the set of atoms used to build the partition table is smoothly restricted to
  | only those atoms whose free-atom density would be non-zero at that grid point.
  Partitioning for Hartree potential was not defined. Using partition_type for integrals.
  | Adjusted default value of keyword multip_moments_threshold to:       0.10000000E-11
  | This value may affect high angular momentum components of the Hartree potential in periodic systems.
  Spin handling was not defined in control.in. Defaulting to unpolarized case.
  Angular momentum expansion for Kerker preconditioner not set explicitly.
  | Using default value of   0
  No explicit requirement for turning off preconditioner.
  | By default, it will be turned off when the charge convergence reaches
  | sc_accuracy_rho  =   0.100000E-05
  | sc_accuracy_eev  =   0.100000E-02
  | sc_accuracy_etot =   0.100000E-05
  No special mixing parameter while Kerker preconditioner is on.
  Using default: charge_mix_param =     0.0500.
  No q(lm)/r^(l+1) cutoff set for long-range Hartree potential.
  | Using default value of  0.100000E-09 .
  | Verify using the multipole_threshold keyword.
  Defaulting to new monopole extrapolation.
  Density update method: automatic selection selected.
  Using density matrix based charge density update.
  Using density matrix based charge density update.
  Using packed matrix style: index .
  Defaulting to use time-reversal symmetry for k-point grid.
------------------------------------------------------------


------------------------------------------------------------
          Reading geometry description geometry.in.
------------------------------------------------------------
 * Warning! You did not set the 'relativistic' flag in input file 'control.in'.
 * Since you are not attempting to treat any elements beyond Ca(Z=20), FHI-aims
 * will default to 'relativistic none'.
 * You must ensure that this is really what you want!!
 * For example, DO NOT compute total-energy differences between results from
 * different settings of the 'relativistic' flag.
  Input structure read successfully.
  The structure contains       48 atoms,  and a total of        512.000 electrons.

  Input geometry:
  | Unit cell:
  |        9.89799976        0.00000000        0.00000000
  |        0.00000000        9.89799976        0.00000000
  |        0.00000000        0.00000000        9.89799976
  | Atomic structure:
  |       Atom                x [A]            y [A]            z [A]
  |    1: Species Li            3.02460258        0.15657060        6.83482621
  |    2: Species Li            3.61327428        0.08491092        2.74787322
  |    3: Species Li            6.85556214        3.17578941        0.39722027
  |    4: Species Li            6.82645232        6.73448106       -0.11119867
  |    5: Species Li            0.34122536        6.68188889        3.08104430
  |    6: Species Li            9.48096599        6.60903273        6.94152637
  |    7: Species Li           -0.03204965        2.91565039        6.57622486
  |    8: Species Li            3.58699953        6.30483345        3.80293736
  |    9: Species Li            6.68397100        8.10163673        5.03610976
  |   10: Species Li            5.30726787        2.15314021        2.67262608
  |   11: Species Li            1.27328858        8.70800412        3.77902731
  |   12: Species Li            0.31686217        2.22251473        2.13195437
  |   13: Species Li            7.75570643       -0.14984073        1.65125217
  |   14: Species Li            8.19690832        9.96123289        8.04315112
  |   15: Species Li            2.07029869        6.45194930        7.34020191
  |   16: Species Li            5.86600127        5.56746686        7.17834540
  |   17: Species Li            7.43365755        5.28333150        4.55972017
  |   18: Species Li            0.39145996        8.66904770        2.39350889
  |   19: Species Li            1.66130321        1.97047571        9.55169965
  |   20: Species Li            4.70591231        6.87897894        5.07220465
  |   21: Species P             0.00816094       -0.01179108        4.91830671
  |   22: Species P             4.89298477        0.06045355       -0.13401921
  |   23: Species P             0.05100948        4.98938230        0.07787225
  |   24: Species P             5.05720516        4.87144736        4.81818552
  |   25: Species S             1.15061719        8.64238980        6.10077103
  |   26: Species S             8.59654991        1.10640784        6.05623566
  |   27: Species S             8.72702953        8.68279298        3.72175948
  |   28: Species S             1.26631706        1.22970584        3.87626796
  |   29: Species S             6.07720035        1.29282681        8.59471616
  |   30: Species S             6.01238461        8.73707633        1.06840560
  |   31: Species S             3.67627995        8.77630900        8.57101348
  |   32: Species S             3.69696165        1.29069638        0.97346149
  |   33: Species S             8.72347505        5.95820739        1.44450692
  |   34: Species S             1.06545118        6.31045651        8.80241728
  |   35: Species S             8.75372655        3.78116550        8.83853334
  |   36: Species S             1.42076586        3.87978130        1.16287484
  |   37: Species S             6.08183376        6.25065374        3.71869580
  |   38: Species S             6.32505001        3.79218907        6.01152540
  |   39: Species S             4.08581361        3.61184732        3.52680091
  |   40: Species S             3.62892564        5.76026583        6.04798834
  |   41: Species Cl            2.36682059        2.49367495        7.25406970
  |   42: Species Cl            7.31343336        7.53938380        7.48433146
  |   43: Species Cl            4.73670718       -0.23273362        4.89295284
  |   44: Species Cl            5.16152379        5.03058140       -0.25834276
  |   45: Species Cl           -0.04972863        0.26024035        0.16637994
  |   46: Species Cl            0.03004227        4.95707353        5.02330180
  |   47: Species Cl            7.59638730        2.35190796        2.47201849
  |   48: Species Cl            2.47160531        7.52488886        2.46208931

  Lattice parameters for 3D lattice (in Angstroms) :     9.898000    9.898000    9.898000
  Angle(s) between unit vectors (in degrees)      :    90.000000   90.000000   90.000000

  |

  | The smallest distance between any two atoms is         1.64280267 AA.
  |
  | The first atom of this pair is atom number                     11 .
  | The second atom of this pair is atom number                    18 .
  | Wigner-Seitz cell of the first atom image           0     0     0 .
  | (The Wigner-Seitz cell of the second atom is 0 0 0  by definition.)

  Symmetry information by spglib:
  | Precision set to  0.1E-04
  | Number of Operations  : 1
  | Space group           : 1
  | International         : P1
  | Schoenflies           : C1^1

  Quantities derived from the lattice vectors:
  | Reciprocal lattice vector 1:  0.634793  0.000000  0.000000
  | Reciprocal lattice vector 2:  0.000000  0.634793  0.000000
  | Reciprocal lattice vector 3:  0.000000  0.000000  0.634793
  | Unit cell volume                               :   0.969711E+03  A^3

  Range separation radius for Ewald summation (hartree_convergence_parameter):      3.90166475 bohr.

  Fractional coordinates:
                         L1                L2                L3
       atom_frac         0.30557715        0.01581841        0.69052600  Li
       atom_frac         0.36505096        0.00857859        0.27761904  Li
       atom_frac         0.69262096        0.32085164        0.04013137  Li
       atom_frac         0.68967998        0.68038808       -0.01123446  Li
       atom_frac         0.03447417        0.67507467        0.31127949  Li
       atom_frac         0.95786686        0.66771397        0.70130597  Li
       atom_frac        -0.00323799        0.29456966        0.66439938  Li
       atom_frac         0.36239640        0.63698056        0.38421271  Li
       atom_frac         0.67528502        0.81851252        0.50880076  Li
       atom_frac         0.53619600        0.21753286        0.27001679  Li
       atom_frac         0.12864100        0.87977413        0.38179707  Li
       atom_frac         0.03201275        0.22454180        0.21539245  Li
       atom_frac         0.78356300       -0.01513849        0.16682685  Li
       atom_frac         0.82813786        1.00638848        0.81260369  Li
       atom_frac         0.20916334        0.65184375        0.74158437  Li
       atom_frac         0.59264512        0.56248404        0.72523192  Li
       atom_frac         0.75102624        0.53377770        0.46067087  Li
       atom_frac         0.03954940        0.87583834        0.24181743  Li
       atom_frac         0.16784232        0.19907817        0.96501312  Li
       atom_frac         0.47544074        0.69498678        0.51244744  Li
       atom_frac         0.00082450       -0.00119126        0.49689905  P
       atom_frac         0.49434076        0.00610765       -0.01354003  P
       atom_frac         0.00515351        0.50407986        0.00786747  P
       atom_frac         0.51093203        0.49216483        0.48678376  P
       atom_frac         0.11624745        0.87314508        0.61636403  S
       atom_frac         0.86851385        0.11178095        0.61186460  S
       atom_frac         0.88169628        0.87722703        0.37601127  S
       atom_frac         0.12793666        0.12423781        0.39162134  S
       atom_frac         0.61398267        0.13061496        0.86832859  S
       atom_frac         0.60743431        0.88271131        0.10794157  S
       atom_frac         0.37141645        0.88667501        0.86593389  S
       atom_frac         0.37350593        0.13039972        0.09834931  S
       atom_frac         0.88133716        0.60196075        0.14593928  S
       atom_frac         0.10764308        0.63754866        0.88931274  S
       atom_frac         0.88439349        0.38201309        0.89296156  S
       atom_frac         0.14354070        0.39197630        0.11748584  S
       atom_frac         0.61445079        0.63150676        0.37570175  S
       atom_frac         0.63902305        0.38312681        0.60734750  S
       atom_frac         0.41279185        0.36490679        0.35631451  S
       atom_frac         0.36663222        0.58196262        0.61103137  S
       atom_frac         0.23912110        0.25193726        0.73288239  Cl
       atom_frac         0.73887993        0.76170782        0.75614585  Cl
       atom_frac         0.47855196       -0.02351320        0.49433754  Cl
       atom_frac         0.52147140        0.50824222       -0.02610050  Cl
       atom_frac        -0.00502411        0.02629222        0.01680945  Cl
       atom_frac         0.00303519        0.50081568        0.50750676  Cl
       atom_frac         0.76746691        0.23761447        0.24974930  Cl
       atom_frac         0.24970755        0.76024339        0.24874615  Cl

  Number of empty states per atom not set in control.in - providing a guess from actual geometry.
  | Total number of empty states used during s.c.f. cycle:      114
  If you use a very high smearing, use empty_states (per atom!) in control.in to increase this value.

  Structure-dependent array size parameters: 
  | Maximum number of distinct radial functions  :       29
  | Maximum number of basis functions            :      724
  | Number of Kohn-Sham states (occupied + empty):      370
------------------------------------------------------------

------------------------------------------------------------
          Preparing all fixed parts of the calculation.
------------------------------------------------------------
  Determining machine precision:
    2.225073858507201E-308
  Setting up grids for atomic and cluster calculations.

  Creating wave function, potential, and density for free atoms.

  Species: Li

  List of occupied orbitals and eigenvalues:
    n    l              occ      energy [Ha]    energy [eV]
    1    0           2.0000        -1.876896       -51.0729
    2    0           1.0000        -0.084105        -2.2886


  Species: P

  List of occupied orbitals and eigenvalues:
    n    l              occ      energy [Ha]    energy [eV]
    1    0           2.0000       -76.351489     -2077.6297
    2    0           2.0000        -6.353717      -172.8934
    3    0           2.0000        -0.506059       -13.7706
    2    1           6.0000        -4.569386      -124.3393
    3    1           3.0000        -0.198107        -5.3908


  Species: S

  List of occupied orbitals and eigenvalues:
    n    l              occ      energy [Ha]    energy [eV]
    1    0           2.0000       -88.105825     -2397.4815
    2    0           2.0000        -7.730144      -210.3479
    3    0           2.0000        -0.627748       -17.0819
    2    1           6.0000        -5.747971      -156.4103
    3    1           4.0000        -0.255786        -6.9603


  Species: Cl

  List of occupied orbitals and eigenvalues:
    n    l              occ      energy [Ha]    energy [eV]
    1    0           2.0000      -100.709620     -2740.4482
    2    0           2.0000        -9.221874      -250.9399
    3    0           2.0000        -0.753366       -20.5001
    2    1           6.0000        -7.038743      -191.5339
    3    1           5.0000        -0.315359        -8.5813

  Creating fixed part of basis set: Ionic, confined, hydrogenic.
 
  Li                   hydrogenic:
 
  List of hydrogenic basis orbitals: 
    n    l      effective z      eigenvalue [eV]  inner max. [A]     outer max. [A]     outer radius [A]   
    2    1         1.600000        -8.6069           1.303334           1.303334           4.591005
    2    0         2.000000       -13.5631           0.203259           1.385485           4.591005
    3    2         2.600000        -9.9241           1.769240           1.769240           4.591005
 
 
  P                    ion:

  List of free ionic orbitals and eigenvalues:
    n    l      energy [Ha]    energy [eV]
    1    0       -77.297133     -2103.3620
    2    0        -7.273914      -197.9333
    3    0        -1.267536       -34.4914
    2    1        -5.491316      -149.4263
    3    1        -0.913470       -24.8568


  List of ionic basis orbitals and eigenvalues:
    n    l      energy [Ha]    energy [eV]    outer radius [A]
    3    2        -0.457308       -12.4440       4.554583
    3    1        -0.913443       -24.8560       4.337222
    3    0        -1.267519       -34.4910       3.885335

 
  S                    ion:

  List of free ionic orbitals and eigenvalues:
    n    l      energy [Ha]    energy [eV]
    1    0       -89.127201     -2425.2745
    2    0        -8.724378      -237.4024
    3    0        -1.464668       -39.8556
    2    1        -6.744348      -183.5230
    3    1        -1.048520       -28.5317


  List of ionic basis orbitals and eigenvalues:
    n    l      energy [Ha]    energy [eV]    outer radius [A]
    3    2        -0.496135       -13.5005       4.539062
    3    0        -1.464653       -39.8552       3.642502

 
  S                    hydrogenic:
 
  List of hydrogenic basis orbitals: 
    n    l      effective z      eigenvalue [eV]  inner max. [A]     outer max. [A]     outer radius [A]   
    2    1         1.800000       -10.9749           1.168531           1.168531           4.594893
 
 
  Cl                   ion:

  List of free ionic orbitals and eigenvalues:
    n    l      energy [Ha]    energy [eV]
    1    0      -101.807232     -2770.3157
    2    0       -10.290876      -280.0290
    3    0        -1.664625       -45.2967
    2    1        -8.110237      -220.6908
    3    1        -1.183915       -32.2160


  List of ionic basis orbitals and eigenvalues:
    n    l      energy [Ha]    energy [eV]    outer radius [A]
    3    2        -0.529186       -14.3999       4.541334
    3    0        -1.664610       -45.2963       3.428237

 
  Cl                   hydrogenic:
 
  List of hydrogenic basis orbitals: 
    n    l      effective z      eigenvalue [eV]  inner max. [A]     outer max. [A]     outer radius [A]   
    2    1         1.900000       -12.2492           1.113321           1.113321           4.597192
 

  Adding cutoff potential to free-atom effective potential.
  Creating atomic-like basis functions for current effective potential.

  Species Li                  :

  List of atomic basis orbitals and eigenvalues:
    n    l      energy [Ha]    energy [eV]    outer radius [A]
    1    0        -1.876896       -51.0729       4.062706
    2    0        -0.084105        -2.2886       4.591005


  Species P                   :

  List of atomic basis orbitals and eigenvalues:
    n    l      energy [Ha]    energy [eV]    outer radius [A]
    1    0       -76.351489     -2077.6297       0.736837
    2    0        -6.353717      -172.8934       2.532824
    3    0        -0.506059       -13.7706       4.499242
    2    1        -4.569386      -124.3393       2.862183
    3    1        -0.198107        -5.3908       4.554583


  Species S                   :

  List of atomic basis orbitals and eigenvalues:
    n    l      energy [Ha]    energy [eV]    outer radius [A]
    1    0       -88.105825     -2397.4815       0.682391
    2    0        -7.730144      -210.3479       2.317169
    3    0        -0.627748       -17.0819       4.483910
    2    1        -5.747971      -156.4103       2.555240
    3    1        -0.255786        -6.9603       4.539062


  Species Cl                  :

  List of atomic basis orbitals and eigenvalues:
    n    l      energy [Ha]    energy [eV]    outer radius [A]
    1    0      -100.709620     -2740.4482       0.642251
    2    0        -9.221874      -250.9399       2.128190
    3    0        -0.753366       -20.5001       4.431645
    2    1        -7.038743      -191.5339       2.346844
    3    1        -0.315359        -8.5813       4.541334

  Assembling full basis from fixed parts.
  | Species Li :   atomic orbital   1 s accepted.
  | Species Li :   atomic orbital   2 s accepted.
  | Species Li :    hydro orbital   2 s accepted.
  | Species Li :    hydro orbital   2 p accepted.
  | Species Li :    hydro orbital   3 d accepted.
  | Species P :   atomic orbital   1 s accepted.
  | Species P :   atomic orbital   2 s accepted.
  | Species P :    ionic orbital   3 s accepted.
  | Species P :   atomic orbital   3 s accepted.
  | Species P :   atomic orbital   2 p accepted.
  | Species P :    ionic orbital   3 p accepted.
  | Species P :   atomic orbital   3 p accepted.
  | Species P :    ionic orbital   3 d accepted.
  | Species S :   atomic orbital   1 s accepted.
  | Species S :   atomic orbital   2 s accepted.
  | Species S :    ionic orbital   3 s accepted.
  | Species S :   atomic orbital   3 s accepted.
  | Species S :   atomic orbital   2 p accepted.
  | Species S :   atomic orbital   3 p accepted.
  | Species S :    hydro orbital   2 p accepted.
  | Species S :    ionic orbital   3 d accepted.
  | Species Cl :   atomic orbital   1 s accepted.
  | Species Cl :   atomic orbital   2 s accepted.
  | Species Cl :    ionic orbital   3 s accepted.
  | Species Cl :   atomic orbital   3 s accepted.
  | Species Cl :   atomic orbital   2 p accepted.
  | Species Cl :   atomic orbital   3 p accepted.
  | Species Cl :    hydro orbital   2 p accepted.
  | Species Cl :    ionic orbital   3 d accepted.
 
  Basis size parameters after reduction:
  | Total number of radial functions:       29
  | Total number of basis functions :      724
 
  Per-task memory consumption for arrays in subroutine allocate_ext:
  |           7.605768MB.
  Testing on-site integration grid accuracy.
  |  Species  Function  <phi|h_atom|phi> (log., in eV)  <phi|h_atom|phi> (rad., in eV)
           1        1                -51.0729407432                -51.0729328795
           1        2                 -2.3261068990                 -2.3227046518
           1        3                 17.1966930198                 17.2358027191 ***
           1        4                  0.3867256281                  0.3982841734
           1        5                  6.2743141416                  6.2817896417
           2        6              -2077.6297159538              -2077.6288551184
           2        7               -172.8934457906               -172.8934403880
           2        8                -13.4653967551                -13.4655200798
           2        9                  6.4162845277                  6.4013396720
           2       10               -124.3393201040               -124.3393200061
           2       11                 -4.7560266034                 -4.7560495157
           2       12                  6.5873401476                  6.4958904717 ***
           2       13                  5.2911719464                  5.2826493609
           3       14              -2397.4814915323              -2397.4804563634
           3       15               -210.3479335736               -210.3479265952
           3       16                -16.8079362322                -16.8079092816
           3       17                  7.5772439785                  7.5675998324
           3       18               -156.4102581151               -156.4102580951
           3       19                 -6.9617737483                 -6.9640288036
           3       20                  7.5696988470                  7.5151244831 ***
           3       21                  6.0973034823                  6.0928113248
           4       22              -2740.4481953768              -2740.4469735573
           4       23               -250.9399497423               -250.9399403187
           4       24                -20.2462734235                -20.2462512680
           4       25                  8.9460051782                  8.9510436705
           4       26               -191.5339459398               -191.5339455009
           4       27                 -8.5819075957                 -8.5827488985
           4       28                  8.1339828089                  8.0979459360 ***
           4       29                  7.0302175114                  7.0277664253
 * Note: Onsite integrals marked "***" above are less accurate than
 * onsite_accuracy_threshold =    0.03000 eV. Usually, this is harmless.
 * When in doubt, tighten the "radial" and/or "radial_multiplier" flags to check.

  Preparing densities etc. for the partition functions (integrals / Hartree potential).

  Preparations completed.
  max(cpu_time)          :      0.413 s.
  Wall clock time (cpu1) :      0.410 s.
------------------------------------------------------------

------------------------------------------------------------
          Begin self-consistency loop: Initialization.

          Date     :  20220723, Time     :  170106.988
------------------------------------------------------------

  Initializing index lists of integration centers etc. from given atomic structure:
  Mapping all atomic coordinates to central unit cell.

  Initializing the k-points
          Using symmetry for reducing the k-points
  | k-points reduced from:       27 to       14
  | Number of k-points                             :        14
  The eigenvectors in the calculations are COMPLEX.
  | K-points in task   0:         0
  | K-points in task   1:         1
  | K-points in task   2:         1
  | K-points in task   3:         1
  | K-points in task   4:         1
  | K-points in task   5:         1
  | K-points in task   6:         1
  | K-points in task   7:         1
  | K-points in task   8:         1
  | K-points in task   9:         1
  | K-points in task  10:         1
  | K-points in task  11:         1
  | K-points in task  12:         1
  | K-points in task  13:         1
  | K-points in task  14:         1
  | K-points in task  15:         0
  | K-points in task  16:         0
  | K-points in task  17:         0
  | K-points in task  18:         0
  | K-points in task  19:         0
  | Number of basis functions in the Hamiltonian integrals :      3889
  | Number of basis functions in a single unit cell        :       724
  | Number of centers in hartree potential         :      1769
  | Number of centers in hartree multipole         :       936
  | Number of centers in electron density summation:       725
  | Number of centers in basis integrals           :       757
  | Number of centers in integrals                 :       333
  | Number of centers in hamiltonian               :       729
  | Consuming          6 KiB for k_phase.
  | Number of super-cells (origin) [n_cells]                     :         125
  | Number of super-cells (after PM_index) [n_cells]             :          28
  | Number of super-cells in hamiltonian [n_cells_in_hamiltonian]:          28
  | Size of matrix packed + index [n_hamiltonian_matrix_size] :      743851
  Partitioning the integration grid into batches with parallel hashing+maxmin method.
  | Number of batches:     4438
  | Maximal batch size:     171
  | Minimal batch size:      58
  | Average batch size:      80.963
  | Standard deviation of batch sizes:      14.796

  Integration load balanced across    20 MPI tasks.
  Work distribution over tasks is as follows:
  Task     0 has      17963 integration points.
  Task     1 has      17969 integration points.
  Task     2 has      17936 integration points.
  Task     3 has      17977 integration points.
  Task     4 has      17973 integration points.
  Task     5 has      17968 integration points.
  Task     6 has      17977 integration points.
  Task     7 has      18009 integration points.
  Task     8 has      17947 integration points.
  Task     9 has      17988 integration points.
  Task    10 has      17931 integration points.
  Task    11 has      17953 integration points.
  Task    12 has      17953 integration points.
  Task    13 has      17982 integration points.
  Task    14 has      17964 integration points.
  Task    15 has      17937 integration points.
  Task    16 has      17982 integration points.
  Task    17 has      17942 integration points.
  Task    18 has      17986 integration points.
  Task    19 has      17975 integration points.
  Initializing partition tables, free-atom densities, potentials, etc. across the integration grid (initialize_grid_storage).
  | initialize_grid_storage: Actual outermost partition radius vs. multipole_radius_free
  | (-- VB: in principle, multipole_radius_free should be larger, hence this output)
  | Species        1: Confinement radius =              4.999999999999999 AA, multipole_radius_free =              5.001180127821857 AA.
  | Species        1: outer_partition_radius set to              5.001180127821857 AA .
  | Species        2: Confinement radius =              4.999999999999999 AA, multipole_radius_free =              5.022530438398565 AA.
  | Species        2: outer_partition_radius set to              5.022530438398565 AA .
  | Species        3: Confinement radius =              4.999999999999999 AA, multipole_radius_free =              5.005414751018925 AA.
  | Species        3: outer_partition_radius set to              5.005414751018925 AA .
  | Species        4: Confinement radius =              4.999999999999999 AA, multipole_radius_free =              5.007919576009533 AA.
  | Species        4: outer_partition_radius set to              5.007919576009533 AA .
  | Original list of interatomic distances with         757 x        757 entries is created.
  | Net number of integration points:   359312
  | of which are non-zero points    :   323385
  | Numerical average free-atom electrostatic potential    :     -9.55342115 eV
  Renormalizing the initial density to the exact electron count on the 3D integration grid.
  | Initial density: Formal number of electrons (from input files) :     512.0000000000
  | Integrated number of electrons on 3D grid     :     512.0007474345
  | Charge integration error                      :       0.0007474345
  | Normalization factor for density and gradient :       0.9999985402
  Obtaining max. number of non-zero basis functions in each batch (get_n_compute_maxes).
  | Maximal number of non-zero basis functions:      437 in task     0
  | Maximal number of non-zero basis functions:      430 in task     1
  | Maximal number of non-zero basis functions:      413 in task     2
  | Maximal number of non-zero basis functions:      430 in task     3
  | Maximal number of non-zero basis functions:      425 in task     4
  | Maximal number of non-zero basis functions:      429 in task     5
  | Maximal number of non-zero basis functions:      429 in task     6
  | Maximal number of non-zero basis functions:      417 in task     7
  | Maximal number of non-zero basis functions:      452 in task     8
  | Maximal number of non-zero basis functions:      438 in task     9
  | Maximal number of non-zero basis functions:      424 in task    10
  | Maximal number of non-zero basis functions:      421 in task    11
  | Maximal number of non-zero basis functions:      434 in task    12
  | Maximal number of non-zero basis functions:      428 in task    13
  | Maximal number of non-zero basis functions:      418 in task    14
  | Maximal number of non-zero basis functions:      418 in task    15
  | Maximal number of non-zero basis functions:      445 in task    16
  | Maximal number of non-zero basis functions:      446 in task    17
  | Maximal number of non-zero basis functions:      428 in task    18
  | Maximal number of non-zero basis functions:      426 in task    19
  Allocating        0.000 MB for KS_eigenvector_complex
  Integrating Hamiltonian matrix: batch-based integration.
  Time summed over all CPUs for integration: real work       13.052 s, elapsed       13.251 s
  Integrating overlap matrix.
  Time summed over all CPUs for integration: real work        8.845 s, elapsed        8.989 s
  Decreasing sparse matrix size:
   Tolerance:  9.999999824516700E-014
   Hamiltonian matrix
  | Array has   662079 nonzero elements out of   743851 elements
  | Sparsity factor is 0.110
   Overlap matrix
  | Array has   619300 nonzero elements out of   743851 elements
  | Sparsity factor is 0.167
  New size of hamiltonian matrix:      662086

  Updating Kohn-Sham eigenvalues and eigenvectors using ELSI and the ELPA eigensolver.

  Obtaining occupation numbers and chemical potential using ELSI.
  | Chemical potential (Fermi level):    -7.49626542eV
  Writing Kohn-Sham eigenvalues.
  K-point:       1 at    0.000000    0.000000    0.000000 (in units of recip. lattice)

  State    Occupation    Eigenvalue [Ha]    Eigenvalue [eV]
      1       2.00000        -100.749699        -2741.53880
      2       2.00000        -100.730127        -2741.00623
      3       2.00000        -100.729412        -2740.98677
      4       2.00000        -100.723738        -2740.83238
      5       2.00000        -100.723522        -2740.82650
      6       2.00000        -100.723083        -2740.81454
      7       2.00000        -100.722891        -2740.80930
      8       2.00000        -100.721662        -2740.77586
      9       2.00000         -88.170944        -2399.25347
     10       2.00000         -88.167625        -2399.16314
     11       2.00000         -88.155100        -2398.82233
     12       2.00000         -88.148081        -2398.63131
     13       2.00000         -88.137071        -2398.33172
     14       2.00000         -88.135407        -2398.28645
     15       2.00000         -88.134257        -2398.25516
     16       2.00000         -88.133514        -2398.23492
     17       2.00000         -88.132672        -2398.21202
     18       2.00000         -88.132590        -2398.20978
     19       2.00000         -88.132417        -2398.20508
     20       2.00000         -88.130683        -2398.15790
     21       2.00000         -88.125822        -2398.02563
     22       2.00000         -88.124886        -2398.00014
     23       2.00000         -88.123655        -2397.96667
     24       2.00000         -88.122107        -2397.92453
     25       2.00000         -76.410059        -2079.22349
     26       2.00000         -76.393578        -2078.77502
     27       2.00000         -76.377674        -2078.34227
     28       2.00000         -76.377580        -2078.33969
     29       2.00000          -9.264649         -252.10391
     30       2.00000          -9.244183         -251.54702
     31       2.00000          -9.243266         -251.52207
     32       2.00000          -9.237386         -251.36206
     33       2.00000          -9.237101         -251.35429
     34       2.00000          -9.236489         -251.33766
     35       2.00000          -9.236431         -251.33608
     36       2.00000          -9.234976         -251.29649
     37       2.00000          -7.800331         -212.25781
     38       2.00000          -7.796665         -212.15804
     39       2.00000          -7.783065         -211.78796
     40       2.00000          -7.776548         -211.61064
     41       2.00000          -7.764669         -211.28738
     42       2.00000          -7.762733         -211.23471
     43       2.00000          -7.761549         -211.20249
     44       2.00000          -7.760973         -211.18683
     45       2.00000          -7.759876         -211.15697
     46       2.00000          -7.759800         -211.15491
     47       2.00000          -7.759666         -211.15125
     48       2.00000          -7.757689         -211.09745
     49       2.00000          -7.752625         -210.95966
     50       2.00000          -7.751433         -210.92723
     51       2.00000          -7.750373         -210.89839
     52       2.00000          -7.748601         -210.85017
     53       2.00000          -7.082117         -192.71420
     54       2.00000          -7.080823         -192.67899
     55       2.00000          -7.080475         -192.66953
     56       2.00000          -7.061016         -192.14001
     57       2.00000          -7.060831         -192.13500
     58       2.00000          -7.060617         -192.12915
     59       2.00000          -7.060413         -192.12362
     60       2.00000          -7.059824         -192.10760
     61       2.00000          -7.059536         -192.09975
     62       2.00000          -7.054411         -191.96030
     63       2.00000          -7.054145         -191.95306
     64       2.00000          -7.054124         -191.95247
     65       2.00000          -7.053845         -191.94489
     66       2.00000          -7.053678         -191.94035
     67       2.00000          -7.053435         -191.93373
     68       2.00000          -7.053396         -191.93267
     69       2.00000          -7.053392         -191.93255
     70       2.00000          -7.053241         -191.92845
     71       2.00000          -7.053048         -191.92321
     72       2.00000          -7.052995         -191.92177
     73       2.00000          -7.052964         -191.92091
     74       2.00000          -7.051960         -191.89361
     75       2.00000          -7.051657         -191.88536
     76       2.00000          -7.051503         -191.88115
     77       2.00000          -6.420747         -174.71742
     78       2.00000          -6.402665         -174.22538
     79       2.00000          -6.385505         -173.75843
     80       2.00000          -6.385396         -173.75546
     81       2.00000          -5.818485         -158.32905
     82       2.00000          -5.817764         -158.30942
     83       2.00000          -5.816469         -158.27419
     84       2.00000          -5.816201         -158.26687
     85       2.00000          -5.812960         -158.17868
     86       2.00000          -5.812223         -158.15865
     87       2.00000          -5.803453         -157.91999
     88       2.00000          -5.799070         -157.80071
     89       2.00000          -5.798824         -157.79403
     90       2.00000          -5.795007         -157.69016
     91       2.00000          -5.794073         -157.66474
     92       2.00000          -5.792552         -157.62335
     93       2.00000          -5.782892         -157.36051
     94       2.00000          -5.782334         -157.34532
     95       2.00000          -5.781353         -157.31861
     96       2.00000          -5.781139         -157.31280
     97       2.00000          -5.780162         -157.28621
     98       2.00000          -5.780088         -157.28419
     99       2.00000          -5.779803         -157.27645
    100       2.00000          -5.779141         -157.25844
    101       2.00000          -5.778787         -157.24879
    102       2.00000          -5.778773         -157.24842
    103       2.00000          -5.778727         -157.24717
    104       2.00000          -5.778234         -157.23374
    105       2.00000          -5.778196         -157.23271
    106       2.00000          -5.777911         -157.22495
    107       2.00000          -5.777598         -157.21643
    108       2.00000          -5.777244         -157.20681
    109       2.00000          -5.776898         -157.19739
    110       2.00000          -5.776831         -157.19557
    111       2.00000          -5.776453         -157.18529
    112       2.00000          -5.776438         -157.18488
    113       2.00000          -5.776202         -157.17846
    114       2.00000          -5.775844         -157.16870
    115       2.00000          -5.774915         -157.14343
    116       2.00000          -5.774499         -157.13211
    117       2.00000          -5.771114         -157.04000
    118       2.00000          -5.770286         -157.01747
    119       2.00000          -5.770219         -157.01565
    120       2.00000          -5.769158         -156.98678
    121       2.00000          -5.769126         -156.98592
    122       2.00000          -5.768885         -156.97934
    123       2.00000          -5.767919         -156.95305
    124       2.00000          -5.767765         -156.94886
    125       2.00000          -5.767302         -156.93626
    126       2.00000          -5.766875         -156.92466
    127       2.00000          -5.765793         -156.89522
    128       2.00000          -5.765458         -156.88611
    129       2.00000          -4.636887         -126.17611
    130       2.00000          -4.635527         -126.13910
    131       2.00000          -4.634689         -126.11631
    132       2.00000          -4.619218         -125.69531
    133       2.00000          -4.617188         -125.64007
    134       2.00000          -4.616935         -125.63321
    135       2.00000          -4.600947         -125.19814
    136       2.00000          -4.600881         -125.19634
    137       2.00000          -4.600735         -125.19238
    138       2.00000          -4.600684         -125.19099
    139       2.00000          -4.600600         -125.18869
    140       2.00000          -4.600395         -125.18312
    141       2.00000          -1.974917          -53.74022
    142       2.00000          -1.974314          -53.72382
    143       2.00000          -1.949386          -53.04550
    144       2.00000          -1.930009          -52.51823
    145       2.00000          -1.918044          -52.19263
    146       2.00000          -1.909570          -51.96205
    147       2.00000          -1.908315          -51.92788
    148       2.00000          -1.895006          -51.56573
    149       2.00000          -1.894611          -51.55498
    150       2.00000          -1.894102          -51.54113
    151       2.00000          -1.891868          -51.48034
    152       2.00000          -1.891231          -51.46301
    153       2.00000          -1.891020          -51.45726
    154       2.00000          -1.888539          -51.38975
    155       2.00000          -1.886309          -51.32908
    156       2.00000          -1.885886          -51.31758
    157       2.00000          -1.884812          -51.28835
    158       2.00000          -1.884803          -51.28810
    159       2.00000          -1.884724          -51.28596
    160       2.00000          -1.884542          -51.28099
    161       2.00000          -0.860127          -23.40525
    162       2.00000          -0.831487          -22.62590
    163       2.00000          -0.825783          -22.47069
    164       2.00000          -0.802898          -21.84797
    165       2.00000          -0.800962          -21.79529
    166       2.00000          -0.799149          -21.74596
    167       2.00000          -0.796050          -21.66164
    168       2.00000          -0.788110          -21.44556
    169       2.00000          -0.787221          -21.42137
    170       2.00000          -0.786346          -21.39755
    171       2.00000          -0.783725          -21.32624
    172       2.00000          -0.781321          -21.26082
    173       2.00000          -0.778807          -21.19241
    174       2.00000          -0.742862          -20.21430
    175       2.00000          -0.739501          -20.12285
    176       2.00000          -0.726715          -19.77492
    177       2.00000          -0.722831          -19.66924
    178       2.00000          -0.720353          -19.60181
    179       2.00000          -0.718056          -19.53930
    180       2.00000          -0.716327          -19.49224
    181       2.00000          -0.706624          -19.22821
    182       2.00000          -0.704893          -19.18113
    183       2.00000          -0.700746          -19.06826
    184       2.00000          -0.696370          -18.94918
    185       2.00000          -0.577812          -15.72307
    186       2.00000          -0.558536          -15.19853
    187       2.00000          -0.543731          -14.79569
    188       2.00000          -0.534118          -14.53409
    189       2.00000          -0.476197          -12.95799
    190       2.00000          -0.468654          -12.75272
    191       2.00000          -0.464550          -12.64104
    192       2.00000          -0.454988          -12.38085
    193       2.00000          -0.448064          -12.19244
    194       2.00000          -0.445488          -12.12235
    195       2.00000          -0.433007          -11.78273
    196       2.00000          -0.431660          -11.74607
    197       2.00000          -0.428483          -11.65961
    198       2.00000          -0.427520          -11.63340
    199       2.00000          -0.418593          -11.39049
    200       2.00000          -0.418264          -11.38154
    201       2.00000          -0.413736          -11.25833
    202       2.00000          -0.405454          -11.03297
    203       2.00000          -0.401634          -10.92903
    204       2.00000          -0.399418          -10.86872
    205       2.00000          -0.392624          -10.68385
    206       2.00000          -0.390179          -10.61731
    207       2.00000          -0.386703          -10.52271
    208       2.00000          -0.384482          -10.46228
    209       2.00000          -0.383925          -10.44714
    210       2.00000          -0.380943          -10.36597
    211       2.00000          -0.378081          -10.28811
    212       2.00000          -0.376486          -10.24470
    213       2.00000          -0.375905          -10.22888
    214       2.00000          -0.374753          -10.19756
    215       2.00000          -0.373236          -10.15628
    216       2.00000          -0.372210          -10.12834
    217       2.00000          -0.368756          -10.03436
    218       2.00000          -0.367442           -9.99861
    219       2.00000          -0.364627           -9.92200
    220       2.00000          -0.363249           -9.88450
    221       2.00000          -0.362143           -9.85440
    222       2.00000          -0.361160           -9.82768
    223       2.00000          -0.360155           -9.80032
    224       2.00000          -0.356719           -9.70682
    225       2.00000          -0.356096           -9.68985
    226       2.00000          -0.354672           -9.65111
    227       2.00000          -0.354205           -9.63840
    228       2.00000          -0.351154           -9.55539
    229       2.00000          -0.349405           -9.50780
    230       2.00000          -0.348278           -9.47712
    231       2.00000          -0.346521           -9.42931
    232       2.00000          -0.344965           -9.38698
    233       2.00000          -0.342651           -9.32401
    234       2.00000          -0.341926           -9.30429
    235       2.00000          -0.339446           -9.23681
    236       2.00000          -0.337281           -9.17788
    237       2.00000          -0.336198           -9.14841
    238       2.00000          -0.330432           -8.99152
    239       2.00000          -0.328384           -8.93579
    240       2.00000          -0.324197           -8.82184
    241       2.00000          -0.323113           -8.79236
    242       2.00000          -0.320642           -8.72512
    243       2.00000          -0.319675           -8.69881
    244       2.00000          -0.317492           -8.63940
    245       2.00000          -0.316299           -8.60693
    246       2.00000          -0.312332           -8.49899
    247       2.00000          -0.308993           -8.40813
    248       2.00000          -0.304236           -8.27868
    249       2.00000          -0.300928           -8.18868
    250       2.00000          -0.297550           -8.09675
    251       2.00000          -0.296805           -8.07649
    252       2.00000          -0.294982           -8.02687
    253       2.00000          -0.289853           -7.88731
    254       2.00000          -0.285810           -7.77728
    255       2.00000          -0.282305           -7.68192
    256       2.00000          -0.277125           -7.54094
    257       0.00000          -0.196876           -5.35727
    258       0.00000          -0.169783           -4.62002
    259       0.00000          -0.154732           -4.21048
    260       0.00000          -0.141217           -3.84271
    261       0.00000          -0.130488           -3.55077
    262       0.00000          -0.129458           -3.52274
    263       0.00000          -0.126499           -3.44222
    264       0.00000          -0.122536           -3.33437
    265       0.00000          -0.118775           -3.23204
    266       0.00000          -0.116237           -3.16297
    267       0.00000          -0.111787           -3.04187
    268       0.00000          -0.100916           -2.74606
    269       0.00000          -0.095460           -2.59761
    270       0.00000          -0.088985           -2.42141
    271       0.00000          -0.085819           -2.33526
    272       0.00000          -0.078722           -2.14215
    273       0.00000          -0.076934           -2.09347
    274       0.00000          -0.073654           -2.00423
    275       0.00000          -0.069375           -1.88779
    276       0.00000          -0.067906           -1.84781
    277       0.00000          -0.065611           -1.78536
    278       0.00000          -0.062678           -1.70555
    279       0.00000          -0.058010           -1.57853
    280       0.00000          -0.055299           -1.50477
    281       0.00000          -0.053642           -1.45968
    282       0.00000          -0.052725           -1.43473
    283       0.00000          -0.049067           -1.33518
    284       0.00000          -0.044593           -1.21344
    285       0.00000          -0.038151           -1.03814
    286       0.00000          -0.034770           -0.94615
    287       0.00000          -0.032517           -0.88482
    288       0.00000          -0.027432           -0.74647
[...]
    306       0.00000           0.031357            0.85327
    307       0.00000           0.033610            0.91458
    308       0.00000           0.038414            1.04530
    309       0.00000           0.040793            1.11003
    310       0.00000           0.043689            1.18883
    311       0.00000           0.045107            1.22742
    312       0.00000           0.046351            1.26126
    313       0.00000           0.049442            1.34538
    314       0.00000           0.051631            1.40496
    315       0.00000           0.053016            1.44263
    316       0.00000           0.054645            1.48697
    317       0.00000           0.056361            1.53366
    318       0.00000           0.058245            1.58493
    319       0.00000           0.059819            1.62776
    320       0.00000           0.063754            1.73482
    321       0.00000           0.065281            1.77638
    322       0.00000           0.070567            1.92023
    323       0.00000           0.071332            1.94103
    324       0.00000           0.072909            1.98395
    325       0.00000           0.075498            2.05440
    326       0.00000           0.077344            2.10463
    327       0.00000           0.079827            2.17219
    328       0.00000           0.082929            2.25660
    329       0.00000           0.085984            2.33975
    330       0.00000           0.087566            2.38279
    331       0.00000           0.090978            2.47564
    332       0.00000           0.093664            2.54872
    333       0.00000           0.094646            2.57544
    334       0.00000           0.097303            2.64776
    335       0.00000           0.099893            2.71823
    336       0.00000           0.104774            2.85106
    337       0.00000           0.107567            2.92705
    338       0.00000           0.109281            2.97369
    339       0.00000           0.109971            2.99247
    340       0.00000           0.111335            3.02959
    341       0.00000           0.113287            3.08270
    342       0.00000           0.119008            3.23838
    343       0.00000           0.121807            3.31455
    344       0.00000           0.123492            3.36039
    345       0.00000           0.127937            3.48134
    346       0.00000           0.128965            3.50932
    347       0.00000           0.130934            3.56290
    348       0.00000           0.134983            3.67308
    349       0.00000           0.137900            3.75244
    350       0.00000           0.140806            3.83151
    351       0.00000           0.144506            3.93222
    352       0.00000           0.147400            4.01096
    353       0.00000           0.150321            4.09043
    354       0.00000           0.152794            4.15775
    355       0.00000           0.152991            4.16309
    356       0.00000           0.157833            4.29486
    357       0.00000           0.159334            4.33570
    358       0.00000           0.162577            4.42396
    359       0.00000           0.167103            4.54711
    360       0.00000           0.169172            4.60342
    361       0.00000           0.173180            4.71247
    362       0.00000           0.176613            4.80588
    363       0.00000           0.179854            4.89408
    364       0.00000           0.182631            4.96964
    365       0.00000           0.185830            5.05668
    366       0.00000           0.193526            5.26610
    367       0.00000           0.197013            5.36100
    368       0.00000           0.199977            5.44166
    369       0.00000           0.201209            5.47517
    370       0.00000           0.203471            5.53673

  What follows are estimated values for band gap, HOMO, LUMO, etc.
  | They are estimated on a discrete k-point grid and not necessarily exact.
  | For converged numbers, create a DOS and/or band structure plot on a denser k-grid.

  Highest occupied state (VBM) at     -6.20796869 eV (relative to internal zero)
  | Occupation number:      2.00000000
  | K-point:       1 at    0.000000    0.000000    0.000000 (in units of recip. lattice)

  Lowest unoccupied state (CBM) at    -5.41874014 eV (relative to internal zero)
  | Occupation number:      0.00000000
  | K-point:       1 at    0.000000    0.000000    0.000000 (in units of recip. lattice)

  ESTIMATED overall HOMO-LUMO gap:      0.78922855 eV between HOMO at k-point 1 and LUMO at k-point 1
  | This appears to be a direct band gap.
  The gap value is above 0.2 eV. Unless you are using a very sparse k-point grid,
  this system is most likely an insulator or a semiconductor.

  Self-consistency cycle converged.

  End self-consistency iteration #    21       :  max(cpu_time)    wall_clock(cpu1)
  | Time for this iteration                    :       14.324 s          14.321 s
  | Charge density & force component update    :        9.426 s           9.422 s
  | Density mixing                             :        0.007 s           0.007 s
  | Hartree multipole update                   :        0.005 s           0.005 s
  | Hartree multipole summation                :        3.845 s           3.845 s
  | Integration                                :        0.667 s           0.667 s
  | Solution of K.-S. eqns.                    :        0.369 s           0.369 s
  | Total energy evaluation                    :        0.002 s           0.002 s

  Partial memory accounting:
  | Current value for overall tracked memory usage on task 0  :          13.243 MB
  | Peak value for overall tracked memory usage on task 0     :          26.728 MB after allocating wave_pulay
  | Largest tracked array allocation on task 0 so far         :           8.387 MB  when allocating kdm_complex
  Note:  These values currently only include a subset of arrays which are explicitly tracked.
  The "true" memory usage will be greater.
------------------------------------------------------------
  |------------------------------------------
  | Final ELSI Output
  |------------------------------------------
  | Number of basis functions :          724
  | Number of electrons       :        512.0
  | Number of states          :          370
  | Solver                    :         ELPA
  | Parallel mode             :  SINGLE_PROC
  | Matrix format             :  BLACS_DENSE
  |------------------------------------------
  | ELSI Project (c)  elsi-interchange.org
  |------------------------------------------
  Removing unitary transformations (pure translations, rotations) from forces on atoms.
  Atomic forces before filtering:
  | Net force on center of mass :   0.122173E-01 -0.680332E-02 -0.217611E-02 eV/A
  Atomic forces after filtering:
  | Net force on center of mass :  -0.249769E-14  0.000000E+00 -0.624421E-15 eV/A

  Energy and forces in a compact form:
  | Total energy uncorrected      :         -0.314730418024347E+06 eV
  | Total energy corrected        :         -0.314730418024347E+06 eV  <-- do not rely on this value for anything but (periodic) metals
  | Electronic free energy        :         -0.314730418024347E+06 eV
  Total atomic forces (unitary forces cleaned) [eV/Ang]:
  |   1          0.187226267526117E+00          0.899923336724521E+00         -0.200256134464297E+00
  |   2          0.184455753667199E-01         -0.901729326991500E+00          0.917456444968297E+00
  |   3         -0.208673501761954E+00          0.225305390859134E+00         -0.550091801530559E+00
  |   4         -0.276111132550729E+00         -0.296474861752475E+00          0.152730374112472E+00
  |   5         -0.406557239237439E+00         -0.231063576773166E+01          0.462551540613090E+00
  |   6         -0.365604835256261E+00         -0.194088940641547E+00         -0.295569640905561E-01
  |   7          0.817666066523377E+00          0.618335080179796E+00          0.390616131041629E+00
  |   8         -0.179376748955851E+01         -0.896027652761556E+00         -0.218739556665662E+01
  |   9          0.419202236678648E+00          0.117878967549279E+01          0.516018943219395E+00
  |  10          0.104926439295711E+01         -0.749706886330201E+00         -0.508892309565991E+00
  |  11          0.315202911763450E+01         -0.444801526338874E+00          0.199201312340713E+01
  |  12         -0.127929984672787E+01          0.149329433632309E-01         -0.411335419226923E+00
  |  13          0.106372609613069E+01          0.135189199262759E+01          0.278478644929398E-01
  |  14         -0.268169841742608E+00         -0.175727141605473E+00          0.689791644598778E+00
  |  15          0.264429296371853E+01          0.626484675290354E+00         -0.333797479771391E+01
  |  16         -0.173093906859497E+00          0.384481360107824E+00          0.196750282758206E+01
  |  17          0.417388523700600E+01         -0.272719005480912E+01          0.174591856196106E+01
  |  18         -0.167958020085388E+00          0.123575860548296E+01         -0.509688563197680E+01
  |  19          0.220601797733505E+00          0.130370983960935E+00         -0.605731604016779E+00
  |  20          0.179233022331143E+01          0.667020953199217E+01          0.729787084192730E+00
  |  21         -0.180689167194778E+01          0.305227228066988E+01          0.336043363489457E+01
  |  22          0.188971526821552E+00         -0.253870642805131E+00         -0.223510867543092E+01
  |  23         -0.168269479567224E-01         -0.114266970129232E+01          0.125664309031595E+00
  |  24          0.585875709010925E-01         -0.694522737824700E+01          0.680082179993151E+00
  |  25         -0.671211772183305E-01         -0.361807021941591E+00         -0.165204174839186E+00
  |  26         -0.730624600912027E-01         -0.560831056925201E+00         -0.937505896874134E+00
  |  27         -0.100653008750278E+01         -0.100302011412713E+01          0.137682793150051E+00
  |  28          0.534398220374000E+00         -0.115060817471701E+01          0.496327772891996E-01
  |  29          0.166909653031781E+00         -0.127317717017557E+00          0.421392289118074E+00
  |  30         -0.841697083559683E+00         -0.105919429002562E+01          0.551542557670789E+00
  |  31          0.354059109846731E+00         -0.193104250955055E+00          0.697152122005087E+00
  |  32         -0.268655215950641E+00          0.105869698624975E+01          0.327112416166463E+00
  |  33         -0.250887096792289E+00          0.749319591332046E+00          0.539701586533093E-01
  |  34         -0.280656825382089E+01          0.678839643283698E-01          0.420313891295534E+01
  |  35         -0.124588951020417E+00          0.570601444351807E-01         -0.402460060370394E+00
  |  36          0.400022961034218E+00          0.780434986769873E+00         -0.212039514233797E+00
  |  37         -0.213488839588899E+01          0.273953974683691E+01         -0.329251989729882E+01
  |  38          0.126728713633680E+00          0.225234579282866E+00         -0.790846958494462E+00
  |  39         -0.101670624204086E+01          0.213494289764652E+01          0.760743935578520E+00
  |  40         -0.115749614517103E+01         -0.219539115825345E+01          0.114609280979875E+01
  |  41         -0.536219333126339E+00         -0.394400351486331E+00          0.105218627257053E+00
  |  42          0.864130344144830E-01         -0.124056607996913E+00         -0.679693161810459E+00
  |  43          0.812970385563988E-01         -0.727147394815898E+00         -0.306086638789375E+00
  |  44          0.664091750951755E+00          0.175462023987939E+00         -0.274760017541283E+00
  |  45         -0.195581335480850E+00         -0.276738568471236E+00          0.647372826035136E+00
  |  46         -0.361464494961008E+00          0.708809703846312E+00          0.815522744476805E-01
  |  47          0.493895293176843E-01         -0.330788793164094E+00         -0.986711213553077E-01
  |  48         -0.645118377159908E+00          0.456414899736977E+00         -0.618002817953775E+00

  ------------------------------------ 
  Start decomposition of the XC Energy 
  ------------------------------------ 
  X and C from original XC functional choice 
  Hartree-Fock Energy :          0.000000000 Ha              0.000000000 eV
  X Energy            :       -745.414624648 Ha         -20283.763963229 eV
  C Energy            :        -19.342498833 Ha           -526.336172931 eV
  Total XC Energy     :       -764.757123481 Ha         -20810.100136161 eV
  ------------------------------------ 
  LDA X and C from self-consistent density 
  X Energy LDA        :       -690.054586556 Ha         -18777.340680769 eV
  C Energy LDA        :        -38.823522843 Ha          -1056.441807731 eV
  ------------------------------------ 
  End decomposition of the XC Energy 
  ------------------------------------ 

------------------------------------------------------------

------------------------------------------------------------------------------
  Final output of selected total energy values:

  The following output summarizes some interesting total energy values
  at the end of a run (AFTER all relaxation, molecular dynamics, etc.).

  | Total energy of the DFT / Hartree-Fock s.c.f. calculation      :        -314730.418024347 eV
  | Final zero-broadening corrected energy (caution - metals only) :        -314730.418024347 eV
  | For reference only, the value of 1 Hartree used in FHI-aims is :             27.211384500 eV

  Before relying on these values, please be sure to understand exactly which
  total energy value is referred to by a given number. Different objects may
  all carry the same name 'total energy'. Definitions:

  Total energy of the DFT / Hartree-Fock s.c.f. calculation:
  | Note that this energy does not include ANY quantities calculated after the
  | s.c.f. cycle, in particular not ANY RPA, MP2, etc. many-body perturbation terms.

  Final zero-broadening corrected energy:
  | For metallic systems only, a broadening of the occupation numbers at the Fermi
  | level can be extrapolated back to zero broadening by an electron-gas inspired
  | formula. For all systems that are not real metals, this value can be
  | meaningless and should be avoided.

------------------------------------------------------------------------------
  Methods described in the following list of references were used in this FHI-aims run.
  If you publish the results, please make sure to cite these reference if they apply.
  FHI-aims is an academic code, and for our developers (often, Ph.D. students
  and postdocs), scientific credit in the community is essential.
  Thank you for helping us!

  For any use of FHI-aims, please cite:

    Volker Blum, Ralf Gehrke, Felix Hanke, Paula Havu, Ville Havu,
    Xinguo Ren, Karsten Reuter, and Matthias Scheffler
    'Ab initio molecular simulations with numeric atom-centered orbitals'
    Computer Physics Communications 180, 2175-2196 (2009)
    http://dx.doi.org/10.1016/j.cpc.2009.06.022


  The provided symmetry information was generated with SPGlib:

    Atsushi Togo, Yusuke Seto, Dimitar Pashov
    SPGlib 1.7.3 obtained from http://spglib.sourceforge.net
    Copyright (C) 2008 Atsushi Togo


  The scalable eigensolver library ELPA was used in your run.
  ELPA is essential especially for large systems on hundreds or thousands of CPUs.
  For ELPA, please cite:

    Andreas Marek, Volker Blum, Rainer Johanni, Ville Havu, Bruno Lang,
    Thomas Auckenthaler, Alexander Heinecke, Hans-Joachim Bungartz, and Hermann Lederer,
    'The ELPA Library - Scalable Parallel Eigenvalue Solutions
    for Electronic Structure Theory and Computational Science'
    The Journal of Physics: Condensed Matter 26, 213201 (2014).
    http://dx.doi.org/10.1088/0953-8984/26/21/213201


  The ELSI infrastructure was used in your run to solve the Kohn-Sham electronic structure.
  Please check out http://elsi-interchange.org to learn more.
  If scalability is important for your project, please acknowledge ELSI by citing:

    V. W-z. Yu, F. Corsetti, A. Garcia, W. P. Huhn, M. Jacquelin, W. Jia,
    B. Lange, L. Lin, J. Lu, W. Mi, A. Seifitokaldani, A. Vazquez-Mayagoitia,
    C. Yang, H. Yang, and V. Blum
    'ELSI: A unified software interface for Kohn-Sham electronic structure solvers'
    Computer Physics Communications 222, 267-285 (2018).
    http://dx.doi.org/10.1016/j.cpc.2017.09.007


  For the real-space grid partitioning and parallelization used in this calculation, please cite:

    Ville Havu, Volker Blum, Paula Havu, and Matthias Scheffler,
    'Efficient O(N) integration for all-electron electronic structure calculation'
    'using numerically tabulated basis functions'
    Journal of Computational Physics 228, 8367-8379 (2009).
    http://dx.doi.org/10.1016/j.jcp.2009.08.008

  Of course, there are many other important community references, e.g., those cited in the
  above references. Our list is limited to references that describe implementations in the
  FHI-aims code. The reason is purely practical (length of this list) - please credit others as well.

 * A warning was issued further up regarding the CPU load.
   Some CPUs do not participate in the eigenvalue solution.
   In corner cases, this may be the correct behavior. Otherwise,
   consider using a scalapack/elpa version of the code for a parallel treatment.

------------------------------------------------------------
          Leaving FHI-aims.
          Date     :  20220723, Time     :  170256.265

          Computational steps:
          | Number of self-consistency cycles          :           21
          | Number of SCF (re)initializations          :            1

          Detailed time accounting                     :  max(cpu_time)    wall_clock(cpu1)
          | Total time                                 :      109.771 s         109.791 s
          | Preparation time                           :        0.413 s           0.410 s
          | Boundary condition initalization           :        0.244 s           0.244 s
          | Grid partitioning                          :        0.239 s           0.239 s
          | Preloading free-atom quantities on grid    :        0.009 s           0.017 s
          | Free-atom superposition energy             :        0.130 s           0.130 s
          | Total time for integrations                :       15.178 s          15.176 s
          | Total time for solution of K.-S. equations :        8.366 s           8.370 s
          | Total time for density & force components  :       31.241 s          31.219 s
          | Total time for mixing & preconditioning    :       19.402 s          19.407 s
          | Total time for Hartree multipole update    :        0.099 s           0.102 s
          | Total time for Hartree multipole sum       :       33.687 s          33.691 s
          | Total time for total energy evaluation     :        0.008 s           0.014 s

          Partial memory accounting:
          | Residual value for overall tracked memory usage across tasks :           0.000 MB (should be 0.000 MB)
          | Peak values for overall tracked memory usage (after allocating wave_pulay):
          |   Minimum:       26.078 MB (on task 16)
          |   Maximum:       51.094 MB (on task  2)
          |   Average:       43.747 MB
          | Largest tracked array allocation (kdm_complex):
          |   Minimum:        8.387 MB (on task  1)
          |   Maximum:        8.387 MB (on task  1)
          |   Average:        8.387 MB
          Note:  These values currently only include a subset of arrays which are explicitly tracked.
          The "true" memory usage will be greater.

          Have a nice day.
------------------------------------------------------------
