  MPI-parallelism will be employed.
------------------------------------------------------------
          Invoking FHI-aims ...
          Version 171221_1
          Compiled on 2020/09/23 at 19:46:43 on host login.service.

          When using FHI-aims, please cite the following reference:

          Volker Blum, Ralf Gehrke, Felix Hanke, Paula Havu,
          Ville Havu, Xinguo Ren, Karsten Reuter, and Matthias Scheffler,
          'Ab Initio Molecular Simulations with Numeric Atom-Centered Orbitals',
          Computer Physics Communications 180, 2175-2196 (2009)

          For any questions about FHI-aims, please visit the aimsclub website
          with its forums and wiki. Contributions to both the forums and the
          wiki are warmly encouraged - they are for you, and everyone is welcome there.

------------------------------------------------------------



  Date     :  20220723, Time     :  171209.641
  Time zero on CPU 1             :   0.835540000000000E-01  s.
  Internal wall clock time zero  :           427828329.641  s.

  FHI-aims created a unique identifier for this run for later identification
  aims_uuid : 8FE09627-8271-48E5-AF13-6F66EB3C130A

  Using       20 parallel tasks.
  Task        0 on host node043 reporting.
  Task        1 on host node043 reporting.
  Task        2 on host node043 reporting.
  Task        3 on host node043 reporting.
  Task        4 on host node043 reporting.
  Task        5 on host node043 reporting.
  Task        6 on host node043 reporting.
  Task        7 on host node043 reporting.
  Task        8 on host node043 reporting.
  Task        9 on host node043 reporting.
  Task       10 on host node043 reporting.
  Task       11 on host node043 reporting.
  Task       12 on host node043 reporting.
  Task       13 on host node043 reporting.
  Task       14 on host node043 reporting.
  Task       15 on host node043 reporting.
  Task       16 on host node043 reporting.
  Task       17 on host node043 reporting.
  Task       18 on host node043 reporting.
  Task       19 on host node043 reporting.

  Performing system and environment tests:
  *** Environment variable OMP_NUM_THREADS is not set
  *** For performance reasons you might want to set it to 1
  | Maximum stacksize for task 0: unlimited
  | Maximum stacksize for task 1: unlimited
  | Maximum stacksize for task 2: unlimited
  | Maximum stacksize for task 3: unlimited
  | Maximum stacksize for task 4: unlimited
  | Maximum stacksize for task 5: unlimited
  | Maximum stacksize for task 6: unlimited
  | Maximum stacksize for task 7: unlimited
  | Maximum stacksize for task 8: unlimited
  | Maximum stacksize for task 9: unlimited
  | Maximum stacksize for task 10: unlimited
  | Maximum stacksize for task 11: unlimited
  | Maximum stacksize for task 12: unlimited
  | Maximum stacksize for task 13: unlimited
  | Maximum stacksize for task 14: unlimited
  | Maximum stacksize for task 15: unlimited
  | Maximum stacksize for task 16: unlimited
  | Maximum stacksize for task 17: unlimited
  | Maximum stacksize for task 18: unlimited
  | Maximum stacksize for task 19: unlimited
  | Current stacksize for task 0: unlimited
  | Current stacksize for task 1: unlimited
  | Current stacksize for task 2: unlimited
  | Current stacksize for task 3: unlimited
  | Current stacksize for task 4: unlimited
  | Current stacksize for task 5: unlimited
  | Current stacksize for task 6: unlimited
  | Current stacksize for task 7: unlimited
  | Current stacksize for task 8: unlimited
  | Current stacksize for task 9: unlimited
  | Current stacksize for task 10: unlimited
  | Current stacksize for task 11: unlimited
  | Current stacksize for task 12: unlimited
  | Current stacksize for task 13: unlimited
  | Current stacksize for task 14: unlimited
  | Current stacksize for task 15: unlimited
  | Current stacksize for task 16: unlimited
  | Current stacksize for task 17: unlimited
  | Current stacksize for task 18: unlimited
  | Current stacksize for task 19: unlimited
  | Checking for scalapack...
  | Testing pdtran()...
  | All pdtran() tests passed.

  Obtaining array dimensions for all initial allocations:
  
  -----------------------------------------------------------------------
  Parsing control.in (first pass over file, find array dimensions only).
  The contents of control.in will be repeated verbatim below
  unless switched off by setting 'verbatim_writeout .false.' .
  in the first line of control.in .
  -----------------------------------------------------------------------
  
  #===============================================================================
  # FHI-aims file: ./control.in
  # Created using the Atomic Simulation Environment (ASE)
  # Wed Mar 24 12:41:28 2021
  #===============================================================================
  xc                                 pbe
  sc_accuracy_etot                   1e-06
  sc_accuracy_eev                    0.001
  sc_accuracy_rho                    1e-06
  sc_accuracy_forces                 0.0001
  friction_temperature               300  # default 300
  
    k_grid                           3  3  3
  
  
  ################################################################################
  #
  #  FHI-aims code project
  #  VB, Fritz-Haber Institut, 2009
  #
  #  Suggested "light" defaults for Li atom (to be pasted into control.in file)
  #  Be sure to double-check any results obtained with these settings for post-processing,
  #  e.g., with the "tight" defaults and larger basis sets.
  #
  ################################################################################
    species        Li
  #     global species definitions
      nucleus             3
      mass                6.941
  #
      l_hartree           4
  #
      cut_pot             3.5  1.5  1.0
      basis_dep_cutoff    1e-4
  #
      radial_base         29 5.0
      radial_multiplier   1
      angular_grids       specified
        division   0.4484  110
        division   0.5659  194
        division   0.6315  302
  #      division   0.6662  434
  #      division   0.8186  590
  #      division   0.9037  770
  #      division   6.2760  974
  #      outer_grid   974
        outer_grid   302
  ################################################################################
  #
  #  Definition of "minimal" basis
  #
  ################################################################################
  #     valence basis states
      valence      2  s   1.
  #     ion occupancy
      ion_occ      1  s   2.
  ################################################################################
  #
  #  Suggested additional basis functions. For production calculations,
  #  uncomment them one after another (the most important basis functions are
  #  listed first).
  #
  #  Constructed for dimers: 1.80 A, 2.25 A, 2.75 A, 3.50 A, 4.50 A
  #
  ################################################################################
  #  "First tier" - improvements: -189.23 meV to -6.35 meV
       hydro 2 p 1.6
       hydro 2 s 2
       hydro 3 d 2.6
  #  "Second tier" - improvements: -4.69 meV to -0.41 meV
  #     hydro 3 p 4.6
  #     hydro 2 p 1.8
  #     hydro 3 s 6.2
  #     hydro 4 d 4.7
  #     hydro 4 f 4.1
  #  "Third tier" - improvements: -0.20 meV to -0.15 meV
  #     hydro 4 d 0.95
  #     hydro 3 p 6.2
  #     hydro 3 s 1.7
  #  Further functions, listed for completeness
  #     VB: The following functions are only listed for completeness; test very
  #         carefully before any kind of production use. From the point of view
  #         of the basis construction, their main role is to fill up space,
  #         and they are solely determined by the location of the cutoff potential.
  #     hydro 3 p 0.1  # -0.15 meV
  #     hydro 4 d 5    # -0.12 meV
  #     hydro 4 f 0.1  # -0.14 meV
  #     hydro 5 g 0.1  # -0.06 meV
  
  
  ################################################################################
  #
  #  FHI-aims code project
  #  VB, Fritz-Haber Institut, 2010
  #
  #  Suggested "light" defaults for P atom (to be pasted into control.in file)
  #  Be sure to double-check any results obtained with these settings for post-processing,
  #  e.g., with the "tight" defaults and larger basis sets.
  #
  ################################################################################
    species        P
  #     global species definitions
      nucleus             15
      mass                30.973762
  #
      l_hartree           4
  #
      cut_pot             3.5          1.5  1.0
      basis_dep_cutoff    1e-4
  #
      radial_base         43 5.0
      radial_multiplier   1
      angular_grids       specified
        division   0.5527   50
        division   0.8801  110
        division   1.1447  194
        division   1.3165  302
  #      division   1.4113  434
  #      division   1.4781  590
  #      division   1.5482  770
  #      division   1.5845  974
  #      division   2.2606 1202
        outer_grid  302
  ################################################################################
  #
  #  Definition of "minimal" basis
  #
  ################################################################################
  #     valence basis states
      valence      3  s   2.
      valence      3  p   3.
  #     ion occupancy
      ion_occ      3  s   1.
      ion_occ      3  p   2.
  ################################################################################
  #
  #  Suggested additional basis functions. For production calculations,
  #  uncomment them one after another (the most important basis functions are
  #  listed first).
  #
  #  Constructed for dimers: 1.625 A, 1.875 A, 2.5 A, 3.25 A, 4.0 A
  #
  ################################################################################
  #  "First tier" - improvements: -726.20 meV to -35.91 meV
       ionic 3 d auto
       ionic 3 p auto
  #     hydro 4 f 6.2
  #     hydro 5 g 8.6
       ionic 3 s auto
  #  "Second tier" - improvements: -16.02 meV to -1.71 meV
  #     hydro 4 d 6.2
  #     hydro 4 p 9.2
  #     hydro 5 f 9.8
  #     hydro 1 s 0.7
  #     hydro 5 g 13.2
  #  "Third tier" - improvements: -1.82 meV to -0.20 meV
  #     hydro 3 p 2.5
  #     hydro 4 d 6.4
  #     hydro 5 f 11.2
  #     hydro 2 s 1.5
  #  "Fourth tier" - improvements: -0.91 meV to -0.17 meV
  #     hydro 3 d 16.8
  #     hydro 5 g 18
  #     hydro 4 p 4.5
  #     hydro 3 s 2.1
  #  Further basis functions that fell out of the optimization - < -0.09 meV
  #     hydro 4 p 10.4
  #     hydro 4 d 17.6
  #     hydro 4 s 11.2
  ################################################################################
  #
  #  FHI-aims code project
  #  VB, Fritz-Haber Institut, 2009
  #
  #  Suggested "light" defaults for S atom (to be pasted into control.in file)
  #  Be sure to double-check any results obtained with these settings for post-processing,
  #  e.g., with the "tight" defaults and larger basis sets.
  #
  ################################################################################
    species        S
  #     global species definitions
      nucleus             16
      mass                32.065
  #
      l_hartree           4
  #
      cut_pot             3.5          1.5  1.0
      basis_dep_cutoff    1e-4
  #
      radial_base         44 5.0
      radial_multiplier   1
      angular_grids       specified
        division   0.4665  110
        division   0.5810  194
        division   0.7139  302
  #      division   0.8274  434
  #      division   0.9105  590
  #      division   1.0975  770
  #      division   1.2028  974
  #      outer_grid  974
        outer_grid  302
  ################################################################################
  #
  #  Definition of "minimal" basis
  #
  ################################################################################
  #     valence basis states
      valence      3  s   2.
      valence      3  p   4.
  #     ion occupancy
      ion_occ      3  s   1.
      ion_occ      3  p   3.
  ################################################################################
  #
  #  Suggested additional basis functions. For production calculations,
  #  uncomment them one after another (the most important basis functions are
  #  listed first).
  #
  #  Constructed for dimers: 1.6 A, 1.9 A, 2.5 A, 3.25 A, 4.0 A
  #
  ################################################################################
  #  "First tier" - improvements: -652.81 meV to -45.53 meV
       ionic 3 d auto
       hydro 2 p 1.8
  #     hydro 4 f 7
       ionic 3 s auto
  #  "Second tier" - improvements: -30.20 meV to -1.74 meV
  #     hydro 4 d 6.2
  #     hydro 5 g 10.8
  #     hydro 4 p 4.9
  #     hydro 5 f 10
  #     hydro 1 s 0.8
  #  "Third tier" - improvements: -1.04 meV to -0.20 meV
  #     hydro 3 d 3.9
  #     hydro 3 d 2.7
  #     hydro 5 g 12
  #     hydro 4 p 10.4
  #     hydro 5 f 12.4
  #     hydro 2 s 1.9
  #  "Fourth tier" - improvements: -0.35 meV to -0.06 meV
  #     hydro 4 d 10.4
  #     hydro 4 p 7.2
  #     hydro 4 d 10
  #     hydro 5 g 19.2
  #     hydro 4 s 12
  
  ################################################################################
  #
  #  FHI-aims code project
  #  VB, Fritz-Haber Institut, 2009
  #
  #  Suggested "light" defaults for Cl atom (to be pasted into control.in file)
  #  Be sure to double-check any results obtained with these settings for post-processing,
  #  e.g., with the "tight" defaults and larger basis sets.
  #
  ################################################################################
    species        Cl
  #     global species definitions
      nucleus             17
      mass                35.453
  #
      l_hartree           4
  #
      cut_pot             3.5          1.5  1.0
      basis_dep_cutoff    1e-4
  #
      radial_base         45 5.0
      radial_multiplier   1
      angular_grids       specified
        division   0.4412  110
        division   0.5489  194
        division   0.6734  302
  #      division   0.7794  434
  #      division   0.9402  590
  #      division   1.0779  770
  #      division   1.1792  974
  #      outer_grid  974
        outer_grid  302
  ################################################################################
  #
  #  Definition of "minimal" basis
  #
  ################################################################################
  #     valence basis states
      valence      3  s   2.
      valence      3  p   5.
  #     ion occupancy
      ion_occ      3  s   1.
      ion_occ      3  p   4.
  ################################################################################
  #
  #  Suggested additional basis functions. For production calculations,
  #  uncomment them one after another (the most important basis functions are
  #  listed first).
  #
  #  Constructed for dimers: 1.65 A, 2.0 A, 2.5 A, 3.25 A, 4.0 A
  #
  ################################################################################
  #  "First tier" - improvements: -429.57 meV to -15.03 meV
       ionic 3 d auto
       hydro 2 p 1.9
  #     hydro 4 f 7.4
       ionic 3 s auto
  #     hydro 5 g 10.4
  #  "Second tier" - improvements: -7.84 meV to -0.48 meV
  #     hydro 3 d 3.3
  #     hydro 5 f 9.8
  #     hydro 1 s 0.75
  #     hydro 5 g 11.2
  #     hydro 4 p 10.4
  #  "Third tier" - improvements: -1.00 meV to -0.12 meV
  #     hydro 4 d 12.8
  #     hydro 4 f 4.6
  #     hydro 4 d 10.8
  #     hydro 2 s 1.8
  #     hydro 3 p 3
  #  Further functions that fell out - improvements: -0.10 meV and below
  #     hydro 5 f 14.4
  #     hydro 4 s 12.8
  #     hydro 3 d 11.6
  #     hydro 4 s 4.1
  
  -----------------------------------------------------------------------
  Completed first pass over input file control.in .
  -----------------------------------------------------------------------
  
  
  -----------------------------------------------------------------------
  Parsing geometry.in (first pass over file, find array dimensions only).
  The contents of geometry.in will be repeated verbatim below
  unless switched off by setting 'verbatim_writeout .false.' .
  in the first line of geometry.in .
  -----------------------------------------------------------------------
  
  #=======================================================
  # FHI-aims file: geometry.in.8
  # Created using the Atomic Simulation Environment (ASE)
  # Sat Jul 23 22:56:02 2022
  #=======================================================
  lattice_vector 9.8979997634999997 0.0000000000000000 0.0000000000000000
  lattice_vector 0.0000000000000000 9.8979997634999997 0.0000000000000000
  lattice_vector 0.0000000000000000 0.0000000000000000 9.8979997634999997
  atom 3.4638650100000001 1.2131402000000000 6.6477170299999999 Li
  atom 4.0551257400000003 -0.0097446000000000 2.5578062500000001 Li
  atom 7.0214638899999997 3.3015705199999998 0.4413513700000000 Li
  atom 6.5424014000000001 6.8198463000000000 -0.1367757400000000 Li
  atom 0.3982445800000000 6.4009885999999998 2.8278926700000002 Li
  atom 9.3820011399999999 6.5289910400000002 7.0790123800000000 Li
  atom 0.1811129000000000 2.6323665900000002 6.3154656700000000 Li
  atom 3.4907452900000000 6.8612223600000002 3.8482597300000001 Li
  atom 6.6552272900000000 8.1625540799999996 4.9433475500000004 Li
  atom 5.4342268499999999 2.4012912000000002 2.6213908899999998 Li
  atom 1.6546066100000001 8.9595556900000002 3.4383816800000000 Li
  atom 0.6533407700000000 2.3509245499999998 2.3473149499999999 Li
  atom 7.6914140099999999 -0.1087867000000000 1.5375653199999999 Li
  atom 8.3873573199999996 10.1388532700000003 7.9070175100000002 Li
  atom 1.9954155700000000 8.7793407899999991 7.7526104699999996 Li
  atom 5.7007325599999996 6.0367087899999996 7.7715723700000003 Li
  atom 8.4731994900000007 5.4394019299999998 4.1083751599999996 Li
  atom 0.1294069800000000 9.0844712600000008 2.0254922799999999 Li
  atom 1.4593626700000000 2.1132216800000001 9.5495639699999995 Li
  atom 4.7752771599999999 7.4273971799999998 4.7539313400000003 Li
  atom 0.0081609400000000 -0.0117910800000000 4.9183067100000004 P
  atom 4.8929847700000000 0.0604535500000000 -0.1340192100000000 P
  atom 0.0510094800000000 4.9893822999999999 0.0778722500000000 P
  atom 5.0572051599999996 4.8714473600000003 4.8181855200000001 P
  atom 1.1506171900000000 8.6423898000000001 6.1007710299999998 S
  atom 8.5965499100000002 1.1064078399999999 6.0562356599999996 S
  atom 8.7270295299999994 8.6827929800000003 3.7217594799999998 S
  atom 1.2663170600000000 1.2297058400000000 3.8762679599999998 S
  atom 6.0772003500000000 1.2928268100000000 8.5947161600000008 S
  atom 6.0123846099999998 8.7370763300000007 1.0684056000000000 S
  atom 3.6762799500000001 8.7763089999999995 8.5710134799999995 S
  atom 3.6969616500000000 1.2906963800000000 0.9734614900000000 S
  atom 8.7234750499999993 5.9582073900000001 1.4445069200000000 S
  atom 1.0654511799999999 6.3104565099999999 8.8024172800000002 S
  atom 8.7537265499999997 3.7811655000000002 8.8385333399999997 S
  atom 1.4207658599999999 3.8797812999999999 1.1628748400000000 S
  atom 6.0818337600000003 6.2506537399999997 3.7186957999999999 S
  atom 6.3250500100000000 3.7921890700000001 6.0115254000000000 S
  atom 4.0858136099999998 3.6118473199999999 3.5268009100000000 S
  atom 3.6289256399999998 5.7602658299999998 6.0479883399999999 S
  atom 2.3668205900000001 2.4936749499999999 7.2540696999999996 Cl
  atom 7.3134333600000003 7.5393838000000004 7.4843314599999999 Cl
  atom 4.7367071799999998 -0.2327336200000000 4.8929528400000004 Cl
  atom 5.1615237900000004 5.0305814000000000 -0.2583427600000000 Cl
  atom -0.0497286300000000 0.2602403500000000 0.1663799400000000 Cl
  atom 0.0300422700000000 4.9570735299999997 5.0233017999999996 Cl
  atom 7.5963873000000000 2.3519079600000001 2.4720184900000000 Cl
  atom 2.4716053100000002 7.5248888599999999 2.4620893100000001 Cl
  
  -----------------------------------------------------------------------
  Completed first pass over input file geometry.in .
  -----------------------------------------------------------------------
  

  Basic array size parameters:
  | Number of species                 :        4
  | Number of atoms                   :       48
  | Number of lattice vectors         :        3
  | Max. basis fn. angular momentum   :        2
  | Max. atomic/ionic basis occupied n:        3
  | Max. number of basis fn. types    :        3
  | Max. radial fns per species/type  :        5
  | Max. logarithmic grid size        :     1362
  | Max. radial integration grid size :       45
  | Max. angular integration grid size:      302
  | Max. angular grid division number :        8
  | Radial grid for Hartree potential :     1362
  | Number of spin channels           :        1

------------------------------------------------------------
          Reading file control.in.
------------------------------------------------------------
  XC: Using PBE gradient-corrected functionals.
  Convergence accuracy of total energy:  0.1000E-05
  Convergence accuracy of sum of eigenvalues:  0.1000E-02
  Convergence accuracy of self-consistent charge density:  0.1000E-05
  Convergence accuracy of forces:  0.1000E-03
  Friction is calculated at temperature of   0.3000E+03 K
  Found k-point grid:         3         3         3
 
  Reading configuration options for species Li                  .
  | Found nuclear charge :   3.0000
  | Found atomic mass :    6.94100000000000      amu
  | Found l_max for Hartree potential  :   4
  | Found cutoff potl. onset [A], width [A], scale factor :    3.50000    1.50000    1.00000
  | Threshold for basis-dependent cutoff potential is   0.100000E-03
  | Found data for basic radial integration grid :    29 points, outermost radius =    5.000 A
  | Found multiplier for basic radial grid :   1
  | Found angular grid specification: user-specified.
  | Specified grid contains     4 separate shells.
  | Check grid settings after all constraints further below.
  | Found free-atom valence shell :  2 s   1.000
  | Found free-ion valence shell :  1 s   2.000
  | Found hydrogenic basis function :  2 p   1.600
  | Found hydrogenic basis function :  2 s   2.000
  | Found hydrogenic basis function :  3 d   2.600
  Species Li                  : Missing cutoff potential type.
  Defaulting to exp(1/x)/(1-x)^2 type cutoff potential.
  Species Li: No 'logarithmic' tag. Using default grid for free atom:
  | Default logarithmic grid data [bohr] : 0.1000E-03 0.1000E+03 0.1012E+01
  Species Li: On-site basis accuracy parameter (for Gram-Schmidt orthonormalisation) not specified.
  Using default value basis_acc =  0.1000000E-03.
  Species Li                  : Using default innermost maximum threshold i_radial=  2 for radial functions.
  Species Li                  : Default cutoff onset for free atom density etc. : 0.35000000E+01 AA.
  Species Li                  : Basic radial grid will be enhanced according to radial_multiplier =   1, to contain    29 grid points.
 
  Reading configuration options for species P                   .
  | Found nuclear charge :  15.0000
  | Found atomic mass :    30.9737620000000      amu
  | Found l_max for Hartree potential  :   4
  | Found cutoff potl. onset [A], width [A], scale factor :    3.50000    1.50000    1.00000
  | Threshold for basis-dependent cutoff potential is   0.100000E-03
  | Found data for basic radial integration grid :    43 points, outermost radius =    5.000 A
  | Found multiplier for basic radial grid :   1
  | Found angular grid specification: user-specified.
  | Specified grid contains     5 separate shells.
  | Check grid settings after all constraints further below.
  | Found free-atom valence shell :  3 s   2.000
  | Found free-atom valence shell :  3 p   3.000
  | Found free-ion valence shell :  3 s   1.000
  | Found free-ion valence shell :  3 p   2.000
  | Found ionic basis function :  3 d , default cutoff radius.
  | Found ionic basis function :  3 p , default cutoff radius.
  | Found ionic basis function :  3 s , default cutoff radius.
  Species P                   : Missing cutoff potential type.
  Defaulting to exp(1/x)/(1-x)^2 type cutoff potential.
  Species P : No 'logarithmic' tag. Using default grid for free atom:
  | Default logarithmic grid data [bohr] : 0.1000E-03 0.1000E+03 0.1012E+01
  | Will include ionic basis functions of  2.0-fold positive P                    ion.
  Species P : On-site basis accuracy parameter (for Gram-Schmidt orthonormalisation) not specified.
  Using default value basis_acc =  0.1000000E-03.
  Species P                   : Using default innermost maximum threshold i_radial=  2 for radial functions.
  Species P                   : Default cutoff onset for free atom density etc. : 0.35000000E+01 AA.
  Species P                   : Basic radial grid will be enhanced according to radial_multiplier =   1, to contain    43 grid points.
 
  Reading configuration options for species S                   .
  | Found nuclear charge :  16.0000
  | Found atomic mass :    32.0650000000000      amu
  | Found l_max for Hartree potential  :   4
  | Found cutoff potl. onset [A], width [A], scale factor :    3.50000    1.50000    1.00000
  | Threshold for basis-dependent cutoff potential is   0.100000E-03
  | Found data for basic radial integration grid :    44 points, outermost radius =    5.000 A
  | Found multiplier for basic radial grid :   1
  | Found angular grid specification: user-specified.
  | Specified grid contains     4 separate shells.
  | Check grid settings after all constraints further below.
  | Found free-atom valence shell :  3 s   2.000
  | Found free-atom valence shell :  3 p   4.000
  | Found free-ion valence shell :  3 s   1.000
  | Found free-ion valence shell :  3 p   3.000
  | Found ionic basis function :  3 d , default cutoff radius.
  | Found hydrogenic basis function :  2 p   1.800
  | Found ionic basis function :  3 s , default cutoff radius.
  Species S                   : Missing cutoff potential type.
  Defaulting to exp(1/x)/(1-x)^2 type cutoff potential.
  Species S : No 'logarithmic' tag. Using default grid for free atom:
  | Default logarithmic grid data [bohr] : 0.1000E-03 0.1000E+03 0.1012E+01
  | Will include ionic basis functions of  2.0-fold positive S                    ion.
  Species S : On-site basis accuracy parameter (for Gram-Schmidt orthonormalisation) not specified.
  Using default value basis_acc =  0.1000000E-03.
  Species S                   : Using default innermost maximum threshold i_radial=  2 for radial functions.
  Species S                   : Default cutoff onset for free atom density etc. : 0.35000000E+01 AA.
  Species S                   : Basic radial grid will be enhanced according to radial_multiplier =   1, to contain    44 grid points.
 
  Reading configuration options for species Cl                  .
  | Found nuclear charge :  17.0000
  | Found atomic mass :    35.4530000000000      amu
  | Found l_max for Hartree potential  :   4
  | Found cutoff potl. onset [A], width [A], scale factor :    3.50000    1.50000    1.00000
  | Threshold for basis-dependent cutoff potential is   0.100000E-03
  | Found data for basic radial integration grid :    45 points, outermost radius =    5.000 A
  | Found multiplier for basic radial grid :   1
  | Found angular grid specification: user-specified.
  | Specified grid contains     4 separate shells.
  | Check grid settings after all constraints further below.
  | Found free-atom valence shell :  3 s   2.000
  | Found free-atom valence shell :  3 p   5.000
  | Found free-ion valence shell :  3 s   1.000
  | Found free-ion valence shell :  3 p   4.000
  | Found ionic basis function :  3 d , default cutoff radius.
  | Found hydrogenic basis function :  2 p   1.900
  | Found ionic basis function :  3 s , default cutoff radius.
  Species Cl                  : Missing cutoff potential type.
  Defaulting to exp(1/x)/(1-x)^2 type cutoff potential.
  Species Cl: No 'logarithmic' tag. Using default grid for free atom:
  | Default logarithmic grid data [bohr] : 0.1000E-03 0.1000E+03 0.1012E+01
  | Will include ionic basis functions of  2.0-fold positive Cl                   ion.
  Species Cl: On-site basis accuracy parameter (for Gram-Schmidt orthonormalisation) not specified.
  Using default value basis_acc =  0.1000000E-03.
  Species Cl                  : Using default innermost maximum threshold i_radial=  2 for radial functions.
  Species Cl                  : Default cutoff onset for free atom density etc. : 0.35000000E+01 AA.
  Species Cl                  : Basic radial grid will be enhanced according to radial_multiplier =   1, to contain    45 grid points.
 
  Finished reading input file 'control.in'. Consistency checks are next.
 
  MPI_IN_PLACE appears to work with this MPI implementation.
  | Keeping use_mpi_in_place .true. (see manual).
  Target number of points in a grid batch is not set. Defaulting to  100
  Method for grid partitioning is not set. Defaulting to parallel hash+maxmin partitioning.
  Batch size limit is not set. Defaulting to    200
  By default, will store active basis functions for each batch.
  If in need of memory, prune_basis_once .false. can be used to disable this option.
  communication_type for Hartree potential was not specified.
  Defaulting to calc_hartree .
  Defaulting to Pulay charge density mixer.
  Pulay mixer: Number of relevant iterations not set.
  Defaulting to    8 iterations.
  Pulay mixer: Number of initial linear mixing iterations not set.
  Defaulting to    0 iterations.
  Work space size for distributed Hartree potential not set.
  Defaulting to   0.200000E+03 MB.
  Mixing parameter for charge density mixing has not been set.
  Using default: charge_mix_param =     0.0500.
  The mixing parameter will be adjusted in iteration number     2 of the first full s.c.f. cycle only.
  Algorithm-dependent basis array size parameters:
  | n_max_pulay                         :        8
  Maximum number of self-consistency iterations not provided.
  Presetting  1000 iterations.
  Presetting      1001 iterations before the initial mixing cycle
  is restarted anyway using the sc_init_iter criterion / keyword.
  Presetting a factor      1.000 between actual scf density residual
  and density convergence criterion sc_accuracy_rho below which sc_init_iter
  takes no effect.
  Geometry relaxation not requested: no relaxation will be performed.
  Handling of forces: Unphysical translation and rotation will be removed from forces.
  No accuracy limit for integral partition fn. given. Defaulting to  0.1000E-14.
  No threshold value for u(r) in integrations given. Defaulting to  0.1000E-05.
  No occupation type (smearing scheme) given. Defaulting to Gaussian broadening, width =  0.1000E-01 eV.
  The width will be adjusted in iteration number     2 of the first full s.c.f. cycle only.
  S.C.F. convergence parameters will be adjusted in iteration number     2 of the first full s.c.f. cycle only.
  No accuracy for occupation numbers given. Defaulting to  0.1000E-12.
  No threshold value for occupation numbers given. Defaulting to  0.0000E+00.
  No accuracy for fermi level given. Defaulting to  0.1000E-19.
  Maximum # of iterations to find E_F not set. Defaulting to  200.
  Preferred method for the eigenvalue solver ('KS_method') not specified in 'control.in'.
  Defaulting to serial version, 'lapack_fast', since more k-points than CPUs available.
  Will not use alltoall communication since running on < 1024 CPUs.
  Threshold for basis singularities not set.
  Default threshold for basis singularities:  0.1000E-04
  partition_type (choice of integration weights) for integrals was not specified.
  | Using a version of the partition function of Stratmann and coworkers ('stratmann_smoother').
  | At each grid point, the set of atoms used to build the partition table is smoothly restricted to
  | only those atoms whose free-atom density would be non-zero at that grid point.
  Partitioning for Hartree potential was not defined. Using partition_type for integrals.
  | Adjusted default value of keyword multip_moments_threshold to:       0.10000000E-11
  | This value may affect high angular momentum components of the Hartree potential in periodic systems.
  Spin handling was not defined in control.in. Defaulting to unpolarized case.
  Angular momentum expansion for Kerker preconditioner not set explicitly.
  | Using default value of   0
  No explicit requirement for turning off preconditioner.
  | By default, it will be turned off when the charge convergence reaches
  | sc_accuracy_rho  =   0.100000E-05
  | sc_accuracy_eev  =   0.100000E-02
  | sc_accuracy_etot =   0.100000E-05
  No special mixing parameter while Kerker preconditioner is on.
  Using default: charge_mix_param =     0.0500.
  No q(lm)/r^(l+1) cutoff set for long-range Hartree potential.
  | Using default value of  0.100000E-09 .
  | Verify using the multipole_threshold keyword.
  Defaulting to new monopole extrapolation.
  Density update method: automatic selection selected.
  Using density matrix based charge density update.
  Using density matrix based charge density update.
  Using packed matrix style: index .
  Defaulting to use time-reversal symmetry for k-point grid.
------------------------------------------------------------


------------------------------------------------------------
          Reading geometry description geometry.in.
------------------------------------------------------------
 * Warning! You did not set the 'relativistic' flag in input file 'control.in'.
 * Since you are not attempting to treat any elements beyond Ca(Z=20), FHI-aims
 * will default to 'relativistic none'.
 * You must ensure that this is really what you want!!
 * For example, DO NOT compute total-energy differences between results from
 * different settings of the 'relativistic' flag.
  Input structure read successfully.
  The structure contains       48 atoms,  and a total of        512.000 electrons.

  Input geometry:
  | Unit cell:
  |        9.89799976        0.00000000        0.00000000
  |        0.00000000        9.89799976        0.00000000
  |        0.00000000        0.00000000        9.89799976
  | Atomic structure:
  |       Atom                x [A]            y [A]            z [A]
  |    1: Species Li            3.46386501        1.21314020        6.64771703
  |    2: Species Li            4.05512574       -0.00974460        2.55780625
  |    3: Species Li            7.02146389        3.30157052        0.44135137
  |    4: Species Li            6.54240140        6.81984630       -0.13677574
  |    5: Species Li            0.39824458        6.40098860        2.82789267
  |    6: Species Li            9.38200114        6.52899104        7.07901238
  |    7: Species Li            0.18111290        2.63236659        6.31546567
  |    8: Species Li            3.49074529        6.86122236        3.84825973
  |    9: Species Li            6.65522729        8.16255408        4.94334755
  |   10: Species Li            5.43422685        2.40129120        2.62139089
  |   11: Species Li            1.65460661        8.95955569        3.43838168
  |   12: Species Li            0.65334077        2.35092455        2.34731495
  |   13: Species Li            7.69141401       -0.10878670        1.53756532
  |   14: Species Li            8.38735732       10.13885327        7.90701751
  |   15: Species Li            1.99541557        8.77934079        7.75261047
  |   16: Species Li            5.70073256        6.03670879        7.77157237
  |   17: Species Li            8.47319949        5.43940193        4.10837516
  |   18: Species Li            0.12940698        9.08447126        2.02549228
  |   19: Species Li            1.45936267        2.11322168        9.54956397
  |   20: Species Li            4.77527716        7.42739718        4.75393134
  |   21: Species P             0.00816094       -0.01179108        4.91830671
  |   22: Species P             4.89298477        0.06045355       -0.13401921
  |   23: Species P             0.05100948        4.98938230        0.07787225
  |   24: Species P             5.05720516        4.87144736        4.81818552
  |   25: Species S             1.15061719        8.64238980        6.10077103
  |   26: Species S             8.59654991        1.10640784        6.05623566
  |   27: Species S             8.72702953        8.68279298        3.72175948
  |   28: Species S             1.26631706        1.22970584        3.87626796
  |   29: Species S             6.07720035        1.29282681        8.59471616
  |   30: Species S             6.01238461        8.73707633        1.06840560
  |   31: Species S             3.67627995        8.77630900        8.57101348
  |   32: Species S             3.69696165        1.29069638        0.97346149
  |   33: Species S             8.72347505        5.95820739        1.44450692
  |   34: Species S             1.06545118        6.31045651        8.80241728
  |   35: Species S             8.75372655        3.78116550        8.83853334
  |   36: Species S             1.42076586        3.87978130        1.16287484
  |   37: Species S             6.08183376        6.25065374        3.71869580
  |   38: Species S             6.32505001        3.79218907        6.01152540
  |   39: Species S             4.08581361        3.61184732        3.52680091
  |   40: Species S             3.62892564        5.76026583        6.04798834
  |   41: Species Cl            2.36682059        2.49367495        7.25406970
  |   42: Species Cl            7.31343336        7.53938380        7.48433146
  |   43: Species Cl            4.73670718       -0.23273362        4.89295284
  |   44: Species Cl            5.16152379        5.03058140       -0.25834276
  |   45: Species Cl           -0.04972863        0.26024035        0.16637994
  |   46: Species Cl            0.03004227        4.95707353        5.02330180
  |   47: Species Cl            7.59638730        2.35190796        2.47201849
  |   48: Species Cl            2.47160531        7.52488886        2.46208931

  Lattice parameters for 3D lattice (in Angstroms) :     9.898000    9.898000    9.898000
  Angle(s) between unit vectors (in degrees)      :    90.000000   90.000000   90.000000

  |

  | The smallest distance between any two atoms is         1.67057389 AA.
  |
  | The first atom of this pair is atom number                      8 .
  | The second atom of this pair is atom number                    20 .
  | Wigner-Seitz cell of the first atom image           0     0     0 .
  | (The Wigner-Seitz cell of the second atom is 0 0 0  by definition.)

  Symmetry information by spglib:
  | Precision set to  0.1E-04
  | Number of Operations  : 1
  | Space group           : 1
  | International         : P1
  | Schoenflies           : C1^1

  Quantities derived from the lattice vectors:
  | Reciprocal lattice vector 1:  0.634793  0.000000  0.000000
  | Reciprocal lattice vector 2:  0.000000  0.634793  0.000000
  | Reciprocal lattice vector 3:  0.000000  0.000000  0.634793
  | Unit cell volume                               :   0.969711E+03  A^3

  Range separation radius for Ewald summation (hartree_convergence_parameter):      3.90166475 bohr.

  Fractional coordinates:
                         L1                L2                L3
       atom_frac         0.34995606        0.12256418        0.67162227  Li
       atom_frac         0.40969144       -0.00098450        0.25841648  Li
       atom_frac         0.70938210        0.33355937        0.04458996  Li
       atom_frac         0.66098217        0.68901257       -0.01381852  Li
       atom_frac         0.04023485        0.64669517        0.28570345  Li
       atom_frac         0.94786839        0.65962732        0.71519626  Li
       atom_frac         0.01829793        0.26594935        0.63805474  Li
       atom_frac         0.35267179        0.69319282        0.38879166  Li
       atom_frac         0.67238103        0.82466703        0.49942894  Li
       atom_frac         0.54902273        0.24260368        0.26484047  Li
       atom_frac         0.16716576        0.90518851        0.34738147  Li
       atom_frac         0.06600735        0.23751511        0.23715044  Li
       atom_frac         0.77706751       -0.01099078        0.15534101  Li
       atom_frac         0.84737902        1.02433355        0.79885004  Li
       atom_frac         0.20159786        0.88698131        0.78325022  Li
       atom_frac         0.57594794        0.60989179        0.78516595  Li
       atom_frac         0.85605170        0.54954557        0.41507125  Li
       atom_frac         0.01307405        0.91780880        0.20463653  Li
       atom_frac         0.14744016        0.21349987        0.96479735  Li
       atom_frac         0.48244870        0.75039375        0.48029213  Li
       atom_frac         0.00082450       -0.00119126        0.49689905  P
       atom_frac         0.49434076        0.00610765       -0.01354003  P
       atom_frac         0.00515351        0.50407986        0.00786747  P
       atom_frac         0.51093203        0.49216483        0.48678376  P
       atom_frac         0.11624745        0.87314508        0.61636403  S
       atom_frac         0.86851385        0.11178095        0.61186460  S
       atom_frac         0.88169628        0.87722703        0.37601127  S
       atom_frac         0.12793666        0.12423781        0.39162134  S
       atom_frac         0.61398267        0.13061496        0.86832859  S
       atom_frac         0.60743431        0.88271131        0.10794157  S
       atom_frac         0.37141645        0.88667501        0.86593389  S
       atom_frac         0.37350593        0.13039972        0.09834931  S
       atom_frac         0.88133716        0.60196075        0.14593928  S
       atom_frac         0.10764308        0.63754866        0.88931274  S
       atom_frac         0.88439349        0.38201309        0.89296156  S
       atom_frac         0.14354070        0.39197630        0.11748584  S
       atom_frac         0.61445079        0.63150676        0.37570175  S
       atom_frac         0.63902305        0.38312681        0.60734750  S
       atom_frac         0.41279185        0.36490679        0.35631451  S
       atom_frac         0.36663222        0.58196262        0.61103137  S
       atom_frac         0.23912110        0.25193726        0.73288239  Cl
       atom_frac         0.73887993        0.76170782        0.75614585  Cl
       atom_frac         0.47855196       -0.02351320        0.49433754  Cl
       atom_frac         0.52147140        0.50824222       -0.02610050  Cl
       atom_frac        -0.00502411        0.02629222        0.01680945  Cl
       atom_frac         0.00303519        0.50081568        0.50750676  Cl
       atom_frac         0.76746691        0.23761447        0.24974930  Cl
       atom_frac         0.24970755        0.76024339        0.24874615  Cl

  Number of empty states per atom not set in control.in - providing a guess from actual geometry.
  | Total number of empty states used during s.c.f. cycle:      114
  If you use a very high smearing, use empty_states (per atom!) in control.in to increase this value.

  Structure-dependent array size parameters: 
  | Maximum number of distinct radial functions  :       29
  | Maximum number of basis functions            :      724
  | Number of Kohn-Sham states (occupied + empty):      370
------------------------------------------------------------

------------------------------------------------------------
          Preparing all fixed parts of the calculation.
------------------------------------------------------------
  Determining machine precision:
    2.225073858507201E-308
  Setting up grids for atomic and cluster calculations.

  Creating wave function, potential, and density for free atoms.

  Species: Li

  List of occupied orbitals and eigenvalues:
    n    l              occ      energy [Ha]    energy [eV]
    1    0           2.0000        -1.876896       -51.0729
    2    0           1.0000        -0.084105        -2.2886


  Species: P

  List of occupied orbitals and eigenvalues:
    n    l              occ      energy [Ha]    energy [eV]
    1    0           2.0000       -76.351489     -2077.6297
    2    0           2.0000        -6.353717      -172.8934
    3    0           2.0000        -0.506059       -13.7706
    2    1           6.0000        -4.569386      -124.3393
    3    1           3.0000        -0.198107        -5.3908


  Species: S

  List of occupied orbitals and eigenvalues:
    n    l              occ      energy [Ha]    energy [eV]
    1    0           2.0000       -88.105825     -2397.4815
    2    0           2.0000        -7.730144      -210.3479
    3    0           2.0000        -0.627748       -17.0819
    2    1           6.0000        -5.747971      -156.4103
    3    1           4.0000        -0.255786        -6.9603


  Species: Cl

  List of occupied orbitals and eigenvalues:
    n    l              occ      energy [Ha]    energy [eV]
    1    0           2.0000      -100.709620     -2740.4482
    2    0           2.0000        -9.221874      -250.9399
    3    0           2.0000        -0.753366       -20.5001
    2    1           6.0000        -7.038743      -191.5339
    3    1           5.0000        -0.315359        -8.5813

  Creating fixed part of basis set: Ionic, confined, hydrogenic.
 
  Li                   hydrogenic:
 
  List of hydrogenic basis orbitals: 
    n    l      effective z      eigenvalue [eV]  inner max. [A]     outer max. [A]     outer radius [A]   
    2    1         1.600000        -8.6069           1.303334           1.303334           4.591005
    2    0         2.000000       -13.5631           0.203259           1.385485           4.591005
    3    2         2.600000        -9.9241           1.769240           1.769240           4.591005
 
 
  P                    ion:

  List of free ionic orbitals and eigenvalues:
    n    l      energy [Ha]    energy [eV]
    1    0       -77.297133     -2103.3620
    2    0        -7.273914      -197.9333
    3    0        -1.267536       -34.4914
    2    1        -5.491316      -149.4263
    3    1        -0.913470       -24.8568


  List of ionic basis orbitals and eigenvalues:
    n    l      energy [Ha]    energy [eV]    outer radius [A]
    3    2        -0.457308       -12.4440       4.554583
    3    1        -0.913443       -24.8560       4.337222
    3    0        -1.267519       -34.4910       3.885335

 
  S                    ion:

  List of free ionic orbitals and eigenvalues:
    n    l      energy [Ha]    energy [eV]
    1    0       -89.127201     -2425.2745
    2    0        -8.724378      -237.4024
    3    0        -1.464668       -39.8556
    2    1        -6.744348      -183.5230
    3    1        -1.048520       -28.5317


  List of ionic basis orbitals and eigenvalues:
    n    l      energy [Ha]    energy [eV]    outer radius [A]
    3    2        -0.496135       -13.5005       4.539062
    3    0        -1.464653       -39.8552       3.642502

 
  S                    hydrogenic:
 
  List of hydrogenic basis orbitals: 
    n    l      effective z      eigenvalue [eV]  inner max. [A]     outer max. [A]     outer radius [A]   
    2    1         1.800000       -10.9749           1.168531           1.168531           4.594893
 
 
  Cl                   ion:

  List of free ionic orbitals and eigenvalues:
    n    l      energy [Ha]    energy [eV]
    1    0      -101.807232     -2770.3157
    2    0       -10.290876      -280.0290
    3    0        -1.664625       -45.2967
    2    1        -8.110237      -220.6908
    3    1        -1.183915       -32.2160


  List of ionic basis orbitals and eigenvalues:
    n    l      energy [Ha]    energy [eV]    outer radius [A]
    3    2        -0.529186       -14.3999       4.541334
    3    0        -1.664610       -45.2963       3.428237

 
  Cl                   hydrogenic:
 
  List of hydrogenic basis orbitals: 
    n    l      effective z      eigenvalue [eV]  inner max. [A]     outer max. [A]     outer radius [A]   
    2    1         1.900000       -12.2492           1.113321           1.113321           4.597192
 

  Adding cutoff potential to free-atom effective potential.
  Creating atomic-like basis functions for current effective potential.

  Species Li                  :

  List of atomic basis orbitals and eigenvalues:
    n    l      energy [Ha]    energy [eV]    outer radius [A]
    1    0        -1.876896       -51.0729       4.062706
    2    0        -0.084105        -2.2886       4.591005


  Species P                   :

  List of atomic basis orbitals and eigenvalues:
    n    l      energy [Ha]    energy [eV]    outer radius [A]
    1    0       -76.351489     -2077.6297       0.736837
    2    0        -6.353717      -172.8934       2.532824
    3    0        -0.506059       -13.7706       4.499242
    2    1        -4.569386      -124.3393       2.862183
    3    1        -0.198107        -5.3908       4.554583


  Species S                   :

  List of atomic basis orbitals and eigenvalues:
    n    l      energy [Ha]    energy [eV]    outer radius [A]
    1    0       -88.105825     -2397.4815       0.682391
    2    0        -7.730144      -210.3479       2.317169
    3    0        -0.627748       -17.0819       4.483910
    2    1        -5.747971      -156.4103       2.555240
    3    1        -0.255786        -6.9603       4.539062


  Species Cl                  :

  List of atomic basis orbitals and eigenvalues:
    n    l      energy [Ha]    energy [eV]    outer radius [A]
    1    0      -100.709620     -2740.4482       0.642251
    2    0        -9.221874      -250.9399       2.128190
    3    0        -0.753366       -20.5001       4.431645
    2    1        -7.038743      -191.5339       2.346844
    3    1        -0.315359        -8.5813       4.541334

  Assembling full basis from fixed parts.
  | Species Li :   atomic orbital   1 s accepted.
  | Species Li :   atomic orbital   2 s accepted.
  | Species Li :    hydro orbital   2 s accepted.
  | Species Li :    hydro orbital   2 p accepted.
  | Species Li :    hydro orbital   3 d accepted.
  | Species P :   atomic orbital   1 s accepted.
  | Species P :   atomic orbital   2 s accepted.
  | Species P :    ionic orbital   3 s accepted.
  | Species P :   atomic orbital   3 s accepted.
  | Species P :   atomic orbital   2 p accepted.
  | Species P :    ionic orbital   3 p accepted.
  | Species P :   atomic orbital   3 p accepted.
  | Species P :    ionic orbital   3 d accepted.
  | Species S :   atomic orbital   1 s accepted.
  | Species S :   atomic orbital   2 s accepted.
  | Species S :    ionic orbital   3 s accepted.
  | Species S :   atomic orbital   3 s accepted.
  | Species S :   atomic orbital   2 p accepted.
  | Species S :   atomic orbital   3 p accepted.
  | Species S :    hydro orbital   2 p accepted.
  | Species S :    ionic orbital   3 d accepted.
  | Species Cl :   atomic orbital   1 s accepted.
  | Species Cl :   atomic orbital   2 s accepted.
  | Species Cl :    ionic orbital   3 s accepted.
  | Species Cl :   atomic orbital   3 s accepted.
  | Species Cl :   atomic orbital   2 p accepted.
  | Species Cl :   atomic orbital   3 p accepted.
  | Species Cl :    hydro orbital   2 p accepted.
  | Species Cl :    ionic orbital   3 d accepted.
 
  Basis size parameters after reduction:
  | Total number of radial functions:       29
  | Total number of basis functions :      724
 
  Per-task memory consumption for arrays in subroutine allocate_ext:
  |           7.605768MB.
  Testing on-site integration grid accuracy.
  |  Species  Function  <phi|h_atom|phi> (log., in eV)  <phi|h_atom|phi> (rad., in eV)
           1        1                -51.0729407432                -51.0729328795
           1        2                 -2.3261068990                 -2.3227046518
           1        3                 17.1966930198                 17.2358027191 ***
           1        4                  0.3867256281                  0.3982841734
           1        5                  6.2743141416                  6.2817896417
           2        6              -2077.6297159538              -2077.6288551184
           2        7               -172.8934457906               -172.8934403880
           2        8                -13.4653967551                -13.4655200798
           2        9                  6.4162845277                  6.4013396720
           2       10               -124.3393201040               -124.3393200061
           2       11                 -4.7560266034                 -4.7560495157
           2       12                  6.5873401476                  6.4958904717 ***
           2       13                  5.2911719464                  5.2826493609
           3       14              -2397.4814915323              -2397.4804563634
           3       15               -210.3479335736               -210.3479265952
           3       16                -16.8079362322                -16.8079092816
           3       17                  7.5772439785                  7.5675998324
           3       18               -156.4102581151               -156.4102580951
           3       19                 -6.9617737483                 -6.9640288036
           3       20                  7.5696988470                  7.5151244831 ***
           3       21                  6.0973034823                  6.0928113248
           4       22              -2740.4481953768              -2740.4469735573
           4       23               -250.9399497423               -250.9399403187
           4       24                -20.2462734235                -20.2462512680
           4       25                  8.9460051782                  8.9510436705
           4       26               -191.5339459398               -191.5339455009
           4       27                 -8.5819075957                 -8.5827488985
           4       28                  8.1339828089                  8.0979459360 ***
           4       29                  7.0302175114                  7.0277664253
 * Note: Onsite integrals marked "***" above are less accurate than
 * onsite_accuracy_threshold =    0.03000 eV. Usually, this is harmless.
 * When in doubt, tighten the "radial" and/or "radial_multiplier" flags to check.

  Preparing densities etc. for the partition functions (integrals / Hartree potential).

  Preparations completed.
  max(cpu_time)          :      0.411 s.
  Wall clock time (cpu1) :      0.421 s.
------------------------------------------------------------

------------------------------------------------------------
          Begin self-consistency loop: Initialization.

          Date     :  20220723, Time     :  171210.145
------------------------------------------------------------

  Initializing index lists of integration centers etc. from given atomic structure:
  Mapping all atomic coordinates to central unit cell.

  Initializing the k-points
          Using symmetry for reducing the k-points
  | k-points reduced from:       27 to       14
  | Number of k-points                             :        14
  The eigenvectors in the calculations are COMPLEX.
  | K-points in task   0:         0
  | K-points in task   1:         1
  | K-points in task   2:         1
  | K-points in task   3:         1
  | K-points in task   4:         1
  | K-points in task   5:         1
  | K-points in task   6:         1
  | K-points in task   7:         1
  | K-points in task   8:         1
  | K-points in task   9:         1
  | K-points in task  10:         1
  | K-points in task  11:         1
  | K-points in task  12:         1
  | K-points in task  13:         1
  | K-points in task  14:         1
  | K-points in task  15:         0
  | K-points in task  16:         0
  | K-points in task  17:         0
  | K-points in task  18:         0
  | K-points in task  19:         0
  | Number of basis functions in the Hamiltonian integrals :      3920
  | Number of basis functions in a single unit cell        :       724
  | Number of centers in hartree potential         :      1725
  | Number of centers in hartree multipole         :       914
  | Number of centers in electron density summation:       718
  | Number of centers in basis integrals           :       756
  | Number of centers in integrals                 :       340
  | Number of centers in hamiltonian               :       722
  | Consuming          6 KiB for k_phase.
  | Number of super-cells (origin) [n_cells]                     :         125
  | Number of super-cells (after PM_index) [n_cells]             :          28
  | Number of super-cells in hamiltonian [n_cells_in_hamiltonian]:          28
  | Size of matrix packed + index [n_hamiltonian_matrix_size] :      742178
  Partitioning the integration grid into batches with parallel hashing+maxmin method.
  | Number of batches:     4427
  | Maximal batch size:     167
  | Minimal batch size:      57
  | Average batch size:      81.164
  | Standard deviation of batch sizes:      13.668

  Integration load balanced across    20 MPI tasks.
  Work distribution over tasks is as follows:
  Task     0 has      17978 integration points.
  Task     1 has      17963 integration points.
  Task     2 has      17977 integration points.
  Task     3 has      17932 integration points.
  Task     4 has      17932 integration points.
  Task     5 has      17968 integration points.
  Task     6 has      17959 integration points.
  Task     7 has      17985 integration points.
  Task     8 has      17984 integration points.
  Task     9 has      17925 integration points.
  Task    10 has      17959 integration points.
  Task    11 has      17948 integration points.
  Task    12 has      17968 integration points.
  Task    13 has      17989 integration points.
  Task    14 has      17944 integration points.
  Task    15 has      18002 integration points.
  Task    16 has      17972 integration points.
  Task    17 has      17988 integration points.
  Task    18 has      17964 integration points.
  Task    19 has      17975 integration points.
  Initializing partition tables, free-atom densities, potentials, etc. across the integration grid (initialize_grid_storage).
  | initialize_grid_storage: Actual outermost partition radius vs. multipole_radius_free
  | (-- VB: in principle, multipole_radius_free should be larger, hence this output)
  | Species        1: Confinement radius =              4.999999999999999 AA, multipole_radius_free =              5.001180127821857 AA.
  | Species        1: outer_partition_radius set to              5.001180127821857 AA .
  | Species        2: Confinement radius =              4.999999999999999 AA, multipole_radius_free =              5.022530438398565 AA.
  | Species        2: outer_partition_radius set to              5.022530438398565 AA .
  | Species        3: Confinement radius =              4.999999999999999 AA, multipole_radius_free =              5.005414751018925 AA.
  | Species        3: outer_partition_radius set to              5.005414751018925 AA .
  | Species        4: Confinement radius =              4.999999999999999 AA, multipole_radius_free =              5.007919576009533 AA.
  | Species        4: outer_partition_radius set to              5.007919576009533 AA .
  | Original list of interatomic distances with         756 x        756 entries is created.
  | Net number of integration points:   359312
  | of which are non-zero points    :   323599
  | Numerical average free-atom electrostatic potential    :     -9.55338303 eV
  Renormalizing the initial density to the exact electron count on the 3D integration grid.
  | Initial density: Formal number of electrons (from input files) :     512.0000000000
  | Integrated number of electrons on 3D grid     :     511.9994331911
  | Charge integration error                      :      -0.0005668089
  | Normalization factor for density and gradient :       1.0000011070
  Obtaining max. number of non-zero basis functions in each batch (get_n_compute_maxes).
  | Maximal number of non-zero basis functions:      419 in task     0
  | Maximal number of non-zero basis functions:      423 in task     1
  | Maximal number of non-zero basis functions:      438 in task     2
  | Maximal number of non-zero basis functions:      424 in task     3
  | Maximal number of non-zero basis functions:      419 in task     4
  | Maximal number of non-zero basis functions:      433 in task     5
  | Maximal number of non-zero basis functions:      423 in task     6
  | Maximal number of non-zero basis functions:      452 in task     7
  | Maximal number of non-zero basis functions:      421 in task     8
  | Maximal number of non-zero basis functions:      444 in task     9
  | Maximal number of non-zero basis functions:      413 in task    10
  | Maximal number of non-zero basis functions:      438 in task    11
  | Maximal number of non-zero basis functions:      439 in task    12
  | Maximal number of non-zero basis functions:      427 in task    13
  | Maximal number of non-zero basis functions:      454 in task    14
  | Maximal number of non-zero basis functions:      442 in task    15
  | Maximal number of non-zero basis functions:      447 in task    16
  | Maximal number of non-zero basis functions:      414 in task    17
  | Maximal number of non-zero basis functions:      418 in task    18
  | Maximal number of non-zero basis functions:      421 in task    19
  Allocating        0.000 MB for KS_eigenvector_complex
  Integrating Hamiltonian matrix: batch-based integration.
  Time summed over all CPUs for integration: real work       13.039 s, elapsed       13.212 s
  Integrating overlap matrix.
  Time summed over all CPUs for integration: real work        8.840 s, elapsed        8.974 s
  Decreasing sparse matrix size:
   Tolerance:  9.999999824516700E-014
   Hamiltonian matrix
  | Array has   658214 nonzero elements out of   742178 elements
  | Sparsity factor is 0.113
   Overlap matrix
  | Array has   616730 nonzero elements out of   742178 elements
  | Sparsity factor is 0.169
  New size of hamiltonian matrix:      658217

  Updating Kohn-Sham eigenvalues and eigenvectors using ELSI and the ELPA eigensolver.

  Obtaining occupation numbers and chemical potential using ELSI.
  | Chemical potential (Fermi level):    -7.33634691eV
  Writing Kohn-Sham eigenvalues.
  K-point:       1 at    0.000000    0.000000    0.000000 (in units of recip. lattice)

  State    Occupation    Eigenvalue [Ha]    Eigenvalue [eV]
      1       2.00000        -100.768856        -2742.06010
      2       2.00000        -100.751652        -2741.59194
      3       2.00000        -100.749410        -2741.53093
      4       2.00000        -100.734098        -2741.11426
      5       2.00000        -100.733443        -2741.09645
      6       2.00000        -100.732503        -2741.07088
      7       2.00000        -100.732254        -2741.06410
      8       2.00000        -100.731970        -2741.05637
      9       2.00000         -88.145965        -2398.57374
     10       2.00000         -88.145585        -2398.56342
     11       2.00000         -88.145542        -2398.56224
     12       2.00000         -88.143949        -2398.51890
     13       2.00000         -88.142262        -2398.47299
     14       2.00000         -88.141896        -2398.46303
     15       2.00000         -88.137820        -2398.35211
     16       2.00000         -88.136649        -2398.32025
     17       2.00000         -88.135914        -2398.30025
     18       2.00000         -88.133505        -2398.23468
     19       2.00000         -88.131312        -2398.17501
     20       2.00000         -88.127689        -2398.07642
     21       2.00000         -88.124733        -2397.99599
     22       2.00000         -88.124256        -2397.98302
     23       2.00000         -88.119820        -2397.86231
     24       2.00000         -88.117333        -2397.79463
     25       2.00000         -76.384214        -2078.52021
     26       2.00000         -76.383301        -2078.49537
     27       2.00000         -76.378791        -2078.37265
     28       2.00000         -76.378182        -2078.35609
     29       2.00000          -9.284258         -252.63752
     30       2.00000          -9.266061         -252.14235
     31       2.00000          -9.263798         -252.08076
     32       2.00000          -9.248267         -251.65815
     33       2.00000          -9.247550         -251.63865
     34       2.00000          -9.246595         -251.61266
     35       2.00000          -9.246168         -251.60104
     36       2.00000          -9.245775         -251.59034
     37       2.00000          -7.774177         -211.54612
     38       2.00000          -7.773562         -211.52938
     39       2.00000          -7.773202         -211.51960
     40       2.00000          -7.771590         -211.47573
     41       2.00000          -7.770007         -211.43266
     42       2.00000          -7.769131         -211.40880
     43       2.00000          -7.765212         -211.30217
     44       2.00000          -7.764408         -211.28029
     45       2.00000          -7.763374         -211.25217
     46       2.00000          -7.760475         -211.17326
     47       2.00000          -7.758455         -211.11830
     48       2.00000          -7.754650         -211.01476
     49       2.00000          -7.751418         -210.92681
     50       2.00000          -7.750975         -210.91475
     51       2.00000          -7.746184         -210.78440
     52       2.00000          -7.743424         -210.70930
     53       2.00000          -7.101619         -193.24488
     54       2.00000          -7.100704         -193.21999
     55       2.00000          -7.099624         -193.19061
     56       2.00000          -7.084267         -192.77270
     57       2.00000          -7.081981         -192.71050
     58       2.00000          -7.081946         -192.70955
     59       2.00000          -7.081622         -192.70075
     60       2.00000          -7.079547         -192.64429
     61       2.00000          -7.079474         -192.64229
     62       2.00000          -7.065479         -192.26148
     63       2.00000          -7.064980         -192.24789
     64       2.00000          -7.064645         -192.23876
     65       2.00000          -7.064530         -192.23563
     66       2.00000          -7.064064         -192.22297
     67       2.00000          -7.063886         -192.21812
     68       2.00000          -7.063487         -192.20726
     69       2.00000          -7.063352         -192.20360
     70       2.00000          -7.063141         -192.19784
     71       2.00000          -7.063090         -192.19646
     72       2.00000          -7.062720         -192.18639
     73       2.00000          -7.062683         -192.18539
     74       2.00000          -7.062360         -192.17661
     75       2.00000          -7.062215         -192.17264
     76       2.00000          -7.061923         -192.16469
     77       2.00000          -6.392787         -173.95657
     78       2.00000          -6.391876         -173.93179
     79       2.00000          -6.386763         -173.79265
     80       2.00000          -6.386120         -173.77515
     81       2.00000          -5.793194         -157.64082
     82       2.00000          -5.792656         -157.62619
     83       2.00000          -5.792447         -157.62049
     84       2.00000          -5.791881         -157.60511
     85       2.00000          -5.790232         -157.56022
     86       2.00000          -5.790165         -157.55840
     87       2.00000          -5.790073         -157.55591
     88       2.00000          -5.789907         -157.55139
     89       2.00000          -5.789582         -157.54255
     90       2.00000          -5.789204         -157.53226
     91       2.00000          -5.789160         -157.53106
     92       2.00000          -5.788950         -157.52533
     93       2.00000          -5.788360         -157.50930
     94       2.00000          -5.788224         -157.50560
     95       2.00000          -5.787568         -157.48773
     96       2.00000          -5.786406         -157.45611
     97       2.00000          -5.785575         -157.43350
     98       2.00000          -5.785072         -157.41982
     99       2.00000          -5.783862         -157.38688
    100       2.00000          -5.782646         -157.35380
    101       2.00000          -5.782242         -157.34281
    102       2.00000          -5.782172         -157.34090
    103       2.00000          -5.782006         -157.33639
    104       2.00000          -5.781661         -157.32700
    105       2.00000          -5.781119         -157.31224
    106       2.00000          -5.780648         -157.29943
    107       2.00000          -5.779706         -157.27380
    108       2.00000          -5.779406         -157.26565
    109       2.00000          -5.777936         -157.22565
    110       2.00000          -5.776835         -157.19569
    111       2.00000          -5.776622         -157.18988
    112       2.00000          -5.776255         -157.17989
    113       2.00000          -5.774779         -157.13973
    114       2.00000          -5.773148         -157.09536
    115       2.00000          -5.771942         -157.06252
    116       2.00000          -5.771383         -157.04733
    117       2.00000          -5.770384         -157.02013
    118       2.00000          -5.769707         -157.00172
    119       2.00000          -5.768688         -156.97398
    120       2.00000          -5.768367         -156.96526
    121       2.00000          -5.767853         -156.95127
    122       2.00000          -5.767509         -156.94190
    123       2.00000          -5.764988         -156.87331
    124       2.00000          -5.763250         -156.82600
    125       2.00000          -5.763109         -156.82218
    126       2.00000          -5.762433         -156.80378
    127       2.00000          -5.760426         -156.74915
    128       2.00000          -5.760279         -156.74516
    129       2.00000          -4.608641         -125.40749
    130       2.00000          -4.607789         -125.38431
    131       2.00000          -4.607633         -125.38009
    132       2.00000          -4.607494         -125.37629
    133       2.00000          -4.606894         -125.35997
    134       2.00000          -4.606668         -125.35382
    135       2.00000          -4.602158         -125.23110
    136       2.00000          -4.602083         -125.22906
    137       2.00000          -4.601775         -125.22067
    138       2.00000          -4.601552         -125.21461
    139       2.00000          -4.601439         -125.21153
    140       2.00000          -4.601108         -125.20253
    141       2.00000          -1.968359          -53.56177
    142       2.00000          -1.941491          -52.83065
    143       2.00000          -1.922847          -52.32332
    144       2.00000          -1.918880          -52.21539
    145       2.00000          -1.913382          -52.06578
    146       2.00000          -1.906332          -51.87394
    147       2.00000          -1.904635          -51.82775
    148       2.00000          -1.901372          -51.73897
    149       2.00000          -1.898439          -51.65916
    150       2.00000          -1.897786          -51.64138
    151       2.00000          -1.897753          -51.64048
    152       2.00000          -1.896403          -51.60375
    153       2.00000          -1.896249          -51.59955
    154       2.00000          -1.895087          -51.56793
    155       2.00000          -1.894198          -51.54376
    156       2.00000          -1.889710          -51.42162
    157       2.00000          -1.887975          -51.37441
    158       2.00000          -1.886487          -51.33392
    159       2.00000          -1.886134          -51.32433
    160       2.00000          -1.884358          -51.27600
    161       2.00000          -0.850264          -23.13687
    162       2.00000          -0.820747          -22.33367
    163       2.00000          -0.818373          -22.26907
    164       2.00000          -0.817414          -22.24296
    165       2.00000          -0.815407          -22.18835
    166       2.00000          -0.806910          -21.95713
    167       2.00000          -0.804108          -21.88089
    168       2.00000          -0.803588          -21.86673
    169       2.00000          -0.802980          -21.85021
    170       2.00000          -0.801135          -21.79998
    171       2.00000          -0.799077          -21.74400
    172       2.00000          -0.797727          -21.70727
    173       2.00000          -0.733860          -19.96934
    174       2.00000          -0.731738          -19.91162
    175       2.00000          -0.726598          -19.77174
    176       2.00000          -0.724807          -19.72301
    177       2.00000          -0.723990          -19.70077
    178       2.00000          -0.718178          -19.54262
    179       2.00000          -0.713632          -19.41892
    180       2.00000          -0.711292          -19.35523
    181       2.00000          -0.707855          -19.26170
    182       2.00000          -0.702887          -19.12652
    183       2.00000          -0.698435          -19.00538
    184       2.00000          -0.695328          -18.92085
    185       2.00000          -0.564284          -15.35495
    186       2.00000          -0.547516          -14.89866
    187       2.00000          -0.535173          -14.56278
    188       2.00000          -0.532553          -14.49150
    189       2.00000          -0.456315          -12.41697
    190       2.00000          -0.455662          -12.39919
    191       2.00000          -0.450610          -12.26171
    192       2.00000          -0.441458          -12.01268
    193       2.00000          -0.439854          -11.96902
    194       2.00000          -0.435467          -11.84967
    195       2.00000          -0.433774          -11.80360
    196       2.00000          -0.430274          -11.70835
    197       2.00000          -0.428684          -11.66508
    198       2.00000          -0.424318          -11.54628
    199       2.00000          -0.422613          -11.49988
    200       2.00000          -0.420711          -11.44814
    201       2.00000          -0.414595          -11.28170
    202       2.00000          -0.413322          -11.24707
    203       2.00000          -0.409344          -11.13881
    204       2.00000          -0.405388          -11.03116
    205       2.00000          -0.400871          -10.90826
    206       2.00000          -0.397878          -10.82680
    207       2.00000          -0.397212          -10.80869
    208       2.00000          -0.395090          -10.75095
    209       2.00000          -0.390297          -10.62053
    210       2.00000          -0.388947          -10.58379
    211       2.00000          -0.386048          -10.50490
    212       2.00000          -0.384277          -10.45672
    213       2.00000          -0.383685          -10.44060
    214       2.00000          -0.382993          -10.42176
    215       2.00000          -0.381568          -10.38301
    216       2.00000          -0.380496          -10.35382
    217       2.00000          -0.377707          -10.27792
    218       2.00000          -0.375458          -10.21673
    219       2.00000          -0.373857          -10.17318
    220       2.00000          -0.373244          -10.15650
    221       2.00000          -0.371273          -10.10285
    222       2.00000          -0.368981          -10.04049
    223       2.00000          -0.366392           -9.97002
    224       2.00000          -0.364649           -9.92262
    225       2.00000          -0.361699           -9.84233
    226       2.00000          -0.361035           -9.82427
    227       2.00000          -0.358325           -9.75053
    228       2.00000          -0.356307           -9.69561
    229       2.00000          -0.354060           -9.63447
    230       2.00000          -0.349860           -9.52018
    231       2.00000          -0.346474           -9.42804
    232       2.00000          -0.345664           -9.40601
    233       2.00000          -0.340285           -9.25962
    234       2.00000          -0.339359           -9.23442
    235       2.00000          -0.336823           -9.16543
    236       2.00000          -0.335529           -9.13020
    237       2.00000          -0.331402           -9.01790
    238       2.00000          -0.329839           -8.97539
    239       2.00000          -0.328545           -8.94017
    240       2.00000          -0.327397           -8.90894
    241       2.00000          -0.323391           -8.79992
    242       2.00000          -0.320143           -8.71153
    243       2.00000          -0.319044           -8.68162
    244       2.00000          -0.315510           -8.58545
    245       2.00000          -0.310612           -8.45220
    246       2.00000          -0.309251           -8.41515
    247       2.00000          -0.306131           -8.33024
    248       2.00000          -0.303911           -8.26983
    249       2.00000          -0.298592           -8.12511
    250       2.00000          -0.297019           -8.08229
    251       2.00000          -0.291881           -7.94249
    252       2.00000          -0.288577           -7.85257
    253       2.00000          -0.285330           -7.76422
    254       2.00000          -0.279028           -7.59275
    255       2.00000          -0.275804           -7.50501
    256       2.00000          -0.271437           -7.38618
    257       0.00000          -0.186685           -5.07996
    258       0.00000          -0.138198           -3.76056
    259       0.00000          -0.132435           -3.60374
    260       0.00000          -0.129351           -3.51982
    261       0.00000          -0.126659           -3.44657
    262       0.00000          -0.121337           -3.30175
    263       0.00000          -0.120087           -3.26775
    264       0.00000          -0.116560           -3.17175
    265       0.00000          -0.115887           -3.15345
    266       0.00000          -0.114175           -3.10686
    267       0.00000          -0.106350           -2.89393
    268       0.00000          -0.098295           -2.67474
    269       0.00000          -0.093823           -2.55305
    270       0.00000          -0.085443           -2.32501
    271       0.00000          -0.081353           -2.21372
    272       0.00000          -0.079805           -2.17161
    273       0.00000          -0.076576           -2.08375
    274       0.00000          -0.075604           -2.05728
    275       0.00000          -0.072028           -1.95998
    276       0.00000          -0.071043           -1.93317
    277       0.00000          -0.068174           -1.85510
    278       0.00000          -0.063861           -1.73776
    279       0.00000          -0.058796           -1.59991
    280       0.00000          -0.056341           -1.53311
    281       0.00000          -0.054280           -1.47703
    282       0.00000          -0.051160           -1.39212
    283       0.00000          -0.048150           -1.31023
    284       0.00000          -0.047272           -1.28635
    285       0.00000          -0.043642           -1.18755
    286       0.00000          -0.040231           -1.09473
    287       0.00000          -0.032296           -0.87883
    288       0.00000          -0.029868           -0.81274
[...]
    306       0.00000           0.032019            0.87127
    307       0.00000           0.035806            0.97433
    308       0.00000           0.037217            1.01271
    309       0.00000           0.040603            1.10486
    310       0.00000           0.042808            1.16488
    311       0.00000           0.044692            1.21613
    312       0.00000           0.046020            1.25226
    313       0.00000           0.046217            1.25764
    314       0.00000           0.048968            1.33250
    315       0.00000           0.051229            1.39400
    316       0.00000           0.053366            1.45217
    317       0.00000           0.056062            1.52552
    318       0.00000           0.058346            1.58767
    319       0.00000           0.059649            1.62312
    320       0.00000           0.062756            1.70767
    321       0.00000           0.063820            1.73663
    322       0.00000           0.066764            1.81674
    323       0.00000           0.071763            1.95276
    324       0.00000           0.074410            2.02481
    325       0.00000           0.076400            2.07894
    326       0.00000           0.079432            2.16146
    327       0.00000           0.081878            2.22801
    328       0.00000           0.084196            2.29110
    329       0.00000           0.088098            2.39727
    330       0.00000           0.088897            2.41901
    331       0.00000           0.092279            2.51103
    332       0.00000           0.092973            2.52994
    333       0.00000           0.097536            2.65409
    334       0.00000           0.100007            2.72133
    335       0.00000           0.101335            2.75747
    336       0.00000           0.103289            2.81063
    337       0.00000           0.106008            2.88463
    338       0.00000           0.109759            2.98671
    339       0.00000           0.111720            3.04007
    340       0.00000           0.114147            3.10609
    341       0.00000           0.117533            3.19822
    342       0.00000           0.120368            3.27539
    343       0.00000           0.122252            3.32665
    344       0.00000           0.125290            3.40933
    345       0.00000           0.129961            3.53642
    346       0.00000           0.132444            3.60400
    347       0.00000           0.135291            3.68145
    348       0.00000           0.139425            3.79396
    349       0.00000           0.141806            3.85873
    350       0.00000           0.142684            3.88264
    351       0.00000           0.145841            3.96855
    352       0.00000           0.152040            4.13723
    353       0.00000           0.153846            4.18636
    354       0.00000           0.156131            4.24854
    355       0.00000           0.161123            4.38437
    356       0.00000           0.164701            4.48173
    357       0.00000           0.166326            4.52595
    358       0.00000           0.168873            4.59526
    359       0.00000           0.171069            4.65502
    360       0.00000           0.174902            4.75932
    361       0.00000           0.175500            4.77560
    362       0.00000           0.182553            4.96751
    363       0.00000           0.185078            5.03622
    364       0.00000           0.186290            5.06922
    365       0.00000           0.190052            5.17158
    366       0.00000           0.192604            5.24102
    367       0.00000           0.196324            5.34224
    368       0.00000           0.198018            5.38835
    369       0.00000           0.200850            5.46541
    370       0.00000           0.202649            5.51435

  What follows are estimated values for band gap, HOMO, LUMO, etc.
  | They are estimated on a discrete k-point grid and not necessarily exact.
  | For converged numbers, create a DOS and/or band structure plot on a denser k-grid.

  Highest occupied state (VBM) at     -6.00508614 eV (relative to internal zero)
  | Occupation number:      2.00000000
  | K-point:       1 at    0.000000    0.000000    0.000000 (in units of recip. lattice)

  Lowest unoccupied state (CBM) at    -5.12583403 eV (relative to internal zero)
  | Occupation number:      0.00000000
  | K-point:       1 at    0.000000    0.000000    0.000000 (in units of recip. lattice)

  ESTIMATED overall HOMO-LUMO gap:      0.87925210 eV between HOMO at k-point 1 and LUMO at k-point 1
  | This appears to be a direct band gap.
  The gap value is above 0.2 eV. Unless you are using a very sparse k-point grid,
  this system is most likely an insulator or a semiconductor.

  Self-consistency cycle converged.

  End self-consistency iteration #    21       :  max(cpu_time)    wall_clock(cpu1)
  | Time for this iteration                    :       14.329 s          14.326 s
  | Charge density & force component update    :        9.478 s           9.472 s
  | Density mixing                             :        0.007 s           0.007 s
  | Hartree multipole update                   :        0.005 s           0.005 s
  | Hartree multipole summation                :        3.809 s           3.809 s
  | Integration                                :        0.661 s           0.661 s
  | Solution of K.-S. eqns.                    :        0.366 s           0.366 s
  | Total energy evaluation                    :        0.002 s           0.002 s

  Partial memory accounting:
  | Current value for overall tracked memory usage on task 0  :          13.166 MB
  | Peak value for overall tracked memory usage on task 0     :          25.766 MB after allocating wave_pulay
  | Largest tracked array allocation on task 0 so far         :           8.387 MB  when allocating kdm_complex
  Note:  These values currently only include a subset of arrays which are explicitly tracked.
  The "true" memory usage will be greater.
------------------------------------------------------------
  |------------------------------------------
  | Final ELSI Output
  |------------------------------------------
  | Number of basis functions :          724
  | Number of electrons       :        512.0
  | Number of states          :          370
  | Solver                    :         ELPA
  | Parallel mode             :  SINGLE_PROC
  | Matrix format             :  BLACS_DENSE
  |------------------------------------------
  | ELSI Project (c)  elsi-interchange.org
  |------------------------------------------
  Removing unitary transformations (pure translations, rotations) from forces on atoms.
  Atomic forces before filtering:
  | Net force on center of mass :   0.585895E-02  0.955457E-03  0.103132E-02 eV/A
  Atomic forces after filtering:
  | Net force on center of mass :   0.356812E-14 -0.270397E-15 -0.285450E-14 eV/A

  Energy and forces in a compact form:
  | Total energy uncorrected      :         -0.314730022424746E+06 eV
  | Total energy corrected        :         -0.314730022424746E+06 eV  <-- do not rely on this value for anything but (periodic) metals
  | Electronic free energy        :         -0.314730022424746E+06 eV
  Total atomic forces (unitary forces cleaned) [eV/Ang]:
  |   1          0.332019756231534E+01         -0.332092099974565E+01         -0.140689593188284E+01
  |   2          0.563805320852598E+00         -0.109861635834445E+01          0.106163000949125E+01
  |   3         -0.334397405548782E+00          0.196349850898832E+00         -0.454802630929030E+00
  |   4          0.430907901702490E+00         -0.236437421626793E+00          0.624625101281040E+00
  |   5          0.105438732760164E+01         -0.391409706822817E+00          0.654724696636311E+00
  |   6          0.143612395146632E+00         -0.403880177184007E+00         -0.522374474556298E-01
  |   7          0.880850092363798E+00          0.140994923009567E+01          0.354610854996768E+00
  |   8         -0.343487310850336E-01         -0.281109689134746E+01          0.129057010940984E+01
  |   9          0.124260283448181E+01          0.795413483028038E+00          0.652877535911106E+00
  |  10          0.745505230570344E+00         -0.811640669831808E+00         -0.680954858469872E+00
  |  11          0.296088072414084E+00          0.103585340047009E+01          0.217075236110667E+01
  |  12         -0.190744673279696E+01          0.658538277954987E+00         -0.104965108723937E+01
  |  13          0.126076696745297E+01          0.176010574625488E+01          0.333800322066421E+00
  |  14         -0.638997442279357E+00         -0.864136563130653E+00          0.191524088955806E+01
  |  15         -0.143954631933946E+01          0.177033093656892E+00          0.243309783703718E+01
  |  16         -0.800351157707073E+00         -0.100182849165174E+01         -0.111157439263056E+01
  |  17         -0.464936568932173E+01          0.553106990519771E+00         -0.236266239582876E+01
  |  18          0.212436945258076E+00         -0.136177329220628E+00         -0.140868781611007E+01
  |  19          0.276646187103895E+00          0.707259511555037E-01         -0.548194269237216E+00
  |  20         -0.232667145902083E+00          0.136850419564979E+01          0.277065967559821E+01
  |  21         -0.114971523842765E+01          0.991749095830075E+00          0.238581890759041E+01
  |  22          0.122704769174663E+00          0.504136176480793E+00         -0.220059975394581E+01
  |  23          0.258475593511043E+00         -0.328302745602749E+00         -0.717824153283420E+00
  |  24         -0.101365912323873E-01         -0.336578017681812E+01          0.208455489750396E+01
  |  25         -0.187492190992992E+01         -0.531090623902328E+00         -0.434185529571643E+01
  |  26         -0.421572360034240E+00         -0.927870618365340E-01         -0.211694275549150E+01
  |  27         -0.747099853660455E-01         -0.797501662614079E+00         -0.383698773585007E+00
  |  28          0.108413391407754E+01         -0.135497849210841E+01          0.137935650198126E+01
  |  29          0.273390971084586E-02         -0.282344921527247E+00          0.359164590780602E+00
  |  30         -0.155798868453512E+01         -0.118402753811395E+01          0.698913786743737E+00
  |  31          0.367174816840772E+01          0.142507913649292E+00          0.167657907021984E+01
  |  32         -0.484630482485300E+00          0.117909156513795E+01         -0.113293818609761E+00
  |  33         -0.125359377930549E+01          0.544015058849885E+00         -0.958258972999479E-01
  |  34          0.120890447093409E+00          0.948612522363183E-01          0.156918496763609E+00
  |  35          0.180512046882065E+00         -0.918535675448151E-01         -0.511381778932753E+00
  |  36          0.829316155305955E+00          0.137848076456537E+01         -0.336598803046413E+00
  |  37          0.110264802115590E+01          0.641042063975177E+00         -0.171945759715499E+01
  |  38         -0.985422385382651E-01          0.940554495501293E+00         -0.354117572642597E+00
  |  39         -0.154644620085217E+01          0.147883060828463E+01          0.558764910619094E+00
  |  40          0.367307918631951E+00          0.111786794860354E+01         -0.791090714098194E+00
  |  41         -0.329962890254303E+01          0.307098670382974E+01          0.175656437448860E+01
  |  42          0.252965639743326E+00          0.499513276350222E+00         -0.296223203239661E+00
  |  43          0.281564662035073E-01         -0.275746037489374E+00         -0.474283263283540E+00
  |  44          0.347317957411511E+00         -0.310489981251159E-03          0.405312110624545E+00
  |  45         -0.231055682053050E+00          0.588669388926945E-01         -0.256156108492975E+00
  |  46          0.390177580550928E+01         -0.842077346723304E+00          0.226273571514875E+01
  |  47          0.538840303482733E+00         -0.459711223381334E+00         -0.193492646848853E+00
  |  48         -0.119727127428195E+01          0.145724146780545E-01         -0.400876979010206E+01

  ------------------------------------ 
  Start decomposition of the XC Energy 
  ------------------------------------ 
  X and C from original XC functional choice 
  Hartree-Fock Energy :          0.000000000 Ha              0.000000000 eV
  X Energy            :       -745.519996266 Ha         -20286.631270842 eV
  C Energy            :        -19.342937796 Ha           -526.348117739 eV
  Total XC Energy     :       -764.862934063 Ha         -20812.979388581 eV
  ------------------------------------ 
  LDA X and C from self-consistent density 
  X Energy LDA        :       -690.158223093 Ha         -18780.160774409 eV
  C Energy LDA        :        -38.828195822 Ha          -1056.568965947 eV
  ------------------------------------ 
  End decomposition of the XC Energy 
  ------------------------------------ 

------------------------------------------------------------

------------------------------------------------------------------------------
  Final output of selected total energy values:

  The following output summarizes some interesting total energy values
  at the end of a run (AFTER all relaxation, molecular dynamics, etc.).

  | Total energy of the DFT / Hartree-Fock s.c.f. calculation      :        -314730.022424746 eV
  | Final zero-broadening corrected energy (caution - metals only) :        -314730.022424746 eV
  | For reference only, the value of 1 Hartree used in FHI-aims is :             27.211384500 eV

  Before relying on these values, please be sure to understand exactly which
  total energy value is referred to by a given number. Different objects may
  all carry the same name 'total energy'. Definitions:

  Total energy of the DFT / Hartree-Fock s.c.f. calculation:
  | Note that this energy does not include ANY quantities calculated after the
  | s.c.f. cycle, in particular not ANY RPA, MP2, etc. many-body perturbation terms.

  Final zero-broadening corrected energy:
  | For metallic systems only, a broadening of the occupation numbers at the Fermi
  | level can be extrapolated back to zero broadening by an electron-gas inspired
  | formula. For all systems that are not real metals, this value can be
  | meaningless and should be avoided.

------------------------------------------------------------------------------
  Methods described in the following list of references were used in this FHI-aims run.
  If you publish the results, please make sure to cite these reference if they apply.
  FHI-aims is an academic code, and for our developers (often, Ph.D. students
  and postdocs), scientific credit in the community is essential.
  Thank you for helping us!

  For any use of FHI-aims, please cite:

    Volker Blum, Ralf Gehrke, Felix Hanke, Paula Havu, Ville Havu,
    Xinguo Ren, Karsten Reuter, and Matthias Scheffler
    'Ab initio molecular simulations with numeric atom-centered orbitals'
    Computer Physics Communications 180, 2175-2196 (2009)
    http://dx.doi.org/10.1016/j.cpc.2009.06.022


  The provided symmetry information was generated with SPGlib:

    Atsushi Togo, Yusuke Seto, Dimitar Pashov
    SPGlib 1.7.3 obtained from http://spglib.sourceforge.net
    Copyright (C) 2008 Atsushi Togo


  The scalable eigensolver library ELPA was used in your run.
  ELPA is essential especially for large systems on hundreds or thousands of CPUs.
  For ELPA, please cite:

    Andreas Marek, Volker Blum, Rainer Johanni, Ville Havu, Bruno Lang,
    Thomas Auckenthaler, Alexander Heinecke, Hans-Joachim Bungartz, and Hermann Lederer,
    'The ELPA Library - Scalable Parallel Eigenvalue Solutions
    for Electronic Structure Theory and Computational Science'
    The Journal of Physics: Condensed Matter 26, 213201 (2014).
    http://dx.doi.org/10.1088/0953-8984/26/21/213201


  The ELSI infrastructure was used in your run to solve the Kohn-Sham electronic structure.
  Please check out http://elsi-interchange.org to learn more.
  If scalability is important for your project, please acknowledge ELSI by citing:

    V. W-z. Yu, F. Corsetti, A. Garcia, W. P. Huhn, M. Jacquelin, W. Jia,
    B. Lange, L. Lin, J. Lu, W. Mi, A. Seifitokaldani, A. Vazquez-Mayagoitia,
    C. Yang, H. Yang, and V. Blum
    'ELSI: A unified software interface for Kohn-Sham electronic structure solvers'
    Computer Physics Communications 222, 267-285 (2018).
    http://dx.doi.org/10.1016/j.cpc.2017.09.007


  For the real-space grid partitioning and parallelization used in this calculation, please cite:

    Ville Havu, Volker Blum, Paula Havu, and Matthias Scheffler,
    'Efficient O(N) integration for all-electron electronic structure calculation'
    'using numerically tabulated basis functions'
    Journal of Computational Physics 228, 8367-8379 (2009).
    http://dx.doi.org/10.1016/j.jcp.2009.08.008

  Of course, there are many other important community references, e.g., those cited in the
  above references. Our list is limited to references that describe implementations in the
  FHI-aims code. The reason is purely practical (length of this list) - please credit others as well.

 * A warning was issued further up regarding the CPU load.
   Some CPUs do not participate in the eigenvalue solution.
   In corner cases, this may be the correct behavior. Otherwise,
   consider using a scalapack/elpa version of the code for a parallel treatment.

------------------------------------------------------------
          Leaving FHI-aims.
          Date     :  20220723, Time     :  171358.790

          Computational steps:
          | Number of self-consistency cycles          :           21
          | Number of SCF (re)initializations          :            1

          Detailed time accounting                     :  max(cpu_time)    wall_clock(cpu1)
          | Total time                                 :      109.130 s         109.149 s
          | Preparation time                           :        0.411 s           0.421 s
          | Boundary condition initalization           :        0.243 s           0.244 s
          | Grid partitioning                          :        0.250 s           0.250 s
          | Preloading free-atom quantities on grid    :        0.009 s           0.009 s
          | Free-atom superposition energy             :        0.138 s           0.137 s
          | Total time for integrations                :       15.097 s          15.098 s
          | Total time for solution of K.-S. equations :        8.311 s           8.314 s
          | Total time for density & force components  :       31.352 s          31.339 s
          | Total time for mixing & preconditioning    :       19.060 s          19.064 s
          | Total time for Hartree multipole update    :        0.099 s           0.100 s
          | Total time for Hartree multipole sum       :       33.407 s          33.408 s
          | Total time for total energy evaluation     :        0.008 s           0.012 s

          Partial memory accounting:
          | Residual value for overall tracked memory usage across tasks :           0.000 MB (should be 0.000 MB)
          | Peak values for overall tracked memory usage (after allocating wave_pulay):
          |   Minimum:       25.599 MB (on task 18)
          |   Maximum:       51.017 MB (on task  2)
          |   Average:       43.521 MB
          | Largest tracked array allocation (kdm_complex):
          |   Minimum:        8.387 MB (on task  1)
          |   Maximum:        8.387 MB (on task  1)
          |   Average:        8.387 MB
          Note:  These values currently only include a subset of arrays which are explicitly tracked.
          The "true" memory usage will be greater.

          Have a nice day.
------------------------------------------------------------
