  MPI-parallelism will be employed.
------------------------------------------------------------
          Invoking FHI-aims ...
          Version 171221_1
          Compiled on 2020/09/23 at 19:46:43 on host login.service.

          When using FHI-aims, please cite the following reference:

          Volker Blum, Ralf Gehrke, Felix Hanke, Paula Havu,
          Ville Havu, Xinguo Ren, Karsten Reuter, and Matthias Scheffler,
          'Ab Initio Molecular Simulations with Numeric Atom-Centered Orbitals',
          Computer Physics Communications 180, 2175-2196 (2009)

          For any questions about FHI-aims, please visit the aimsclub website
          with its forums and wiki. Contributions to both the forums and the
          wiki are warmly encouraged - they are for you, and everyone is welcome there.

------------------------------------------------------------



  Date     :  20220723, Time     :  165912.095
  Time zero on CPU 1             :   0.925130000000000E-01  s.
  Internal wall clock time zero  :           427827552.095  s.

  FHI-aims created a unique identifier for this run for later identification
  aims_uuid : F0CF2B77-016F-4B14-A894-BC709584E7FB

  Using       20 parallel tasks.
  Task        0 on host node043 reporting.
  Task        1 on host node043 reporting.
  Task        2 on host node043 reporting.
  Task        3 on host node043 reporting.
  Task        4 on host node043 reporting.
  Task        5 on host node043 reporting.
  Task        6 on host node043 reporting.
  Task        7 on host node043 reporting.
  Task        8 on host node043 reporting.
  Task        9 on host node043 reporting.
  Task       10 on host node043 reporting.
  Task       11 on host node043 reporting.
  Task       12 on host node043 reporting.
  Task       13 on host node043 reporting.
  Task       14 on host node043 reporting.
  Task       15 on host node043 reporting.
  Task       16 on host node043 reporting.
  Task       17 on host node043 reporting.
  Task       18 on host node043 reporting.
  Task       19 on host node043 reporting.

  Performing system and environment tests:
  *** Environment variable OMP_NUM_THREADS is not set
  *** For performance reasons you might want to set it to 1
  | Maximum stacksize for task 0: unlimited
  | Maximum stacksize for task 1: unlimited
  | Maximum stacksize for task 2: unlimited
  | Maximum stacksize for task 3: unlimited
  | Maximum stacksize for task 4: unlimited
  | Maximum stacksize for task 5: unlimited
  | Maximum stacksize for task 6: unlimited
  | Maximum stacksize for task 7: unlimited
  | Maximum stacksize for task 8: unlimited
  | Maximum stacksize for task 9: unlimited
  | Maximum stacksize for task 10: unlimited
  | Maximum stacksize for task 11: unlimited
  | Maximum stacksize for task 12: unlimited
  | Maximum stacksize for task 13: unlimited
  | Maximum stacksize for task 14: unlimited
  | Maximum stacksize for task 15: unlimited
  | Maximum stacksize for task 16: unlimited
  | Maximum stacksize for task 17: unlimited
  | Maximum stacksize for task 18: unlimited
  | Maximum stacksize for task 19: unlimited
  | Current stacksize for task 0: unlimited
  | Current stacksize for task 1: unlimited
  | Current stacksize for task 2: unlimited
  | Current stacksize for task 3: unlimited
  | Current stacksize for task 4: unlimited
  | Current stacksize for task 5: unlimited
  | Current stacksize for task 6: unlimited
  | Current stacksize for task 7: unlimited
  | Current stacksize for task 8: unlimited
  | Current stacksize for task 9: unlimited
  | Current stacksize for task 10: unlimited
  | Current stacksize for task 11: unlimited
  | Current stacksize for task 12: unlimited
  | Current stacksize for task 13: unlimited
  | Current stacksize for task 14: unlimited
  | Current stacksize for task 15: unlimited
  | Current stacksize for task 16: unlimited
  | Current stacksize for task 17: unlimited
  | Current stacksize for task 18: unlimited
  | Current stacksize for task 19: unlimited
  | Checking for scalapack...
  | Testing pdtran()...
  | All pdtran() tests passed.

  Obtaining array dimensions for all initial allocations:
  
  -----------------------------------------------------------------------
  Parsing control.in (first pass over file, find array dimensions only).
  The contents of control.in will be repeated verbatim below
  unless switched off by setting 'verbatim_writeout .false.' .
  in the first line of control.in .
  -----------------------------------------------------------------------
  
  #===============================================================================
  # FHI-aims file: ./control.in
  # Created using the Atomic Simulation Environment (ASE)
  # Wed Mar 24 12:41:28 2021
  #===============================================================================
  xc                                 pbe
  sc_accuracy_etot                   1e-06
  sc_accuracy_eev                    0.001
  sc_accuracy_rho                    1e-06
  sc_accuracy_forces                 0.0001
  friction_temperature               300  # default 300
  
    k_grid                           3  3  3
  
  
  ################################################################################
  #
  #  FHI-aims code project
  #  VB, Fritz-Haber Institut, 2009
  #
  #  Suggested "light" defaults for Li atom (to be pasted into control.in file)
  #  Be sure to double-check any results obtained with these settings for post-processing,
  #  e.g., with the "tight" defaults and larger basis sets.
  #
  ################################################################################
    species        Li
  #     global species definitions
      nucleus             3
      mass                6.941
  #
      l_hartree           4
  #
      cut_pot             3.5  1.5  1.0
      basis_dep_cutoff    1e-4
  #
      radial_base         29 5.0
      radial_multiplier   1
      angular_grids       specified
        division   0.4484  110
        division   0.5659  194
        division   0.6315  302
  #      division   0.6662  434
  #      division   0.8186  590
  #      division   0.9037  770
  #      division   6.2760  974
  #      outer_grid   974
        outer_grid   302
  ################################################################################
  #
  #  Definition of "minimal" basis
  #
  ################################################################################
  #     valence basis states
      valence      2  s   1.
  #     ion occupancy
      ion_occ      1  s   2.
  ################################################################################
  #
  #  Suggested additional basis functions. For production calculations,
  #  uncomment them one after another (the most important basis functions are
  #  listed first).
  #
  #  Constructed for dimers: 1.80 A, 2.25 A, 2.75 A, 3.50 A, 4.50 A
  #
  ################################################################################
  #  "First tier" - improvements: -189.23 meV to -6.35 meV
       hydro 2 p 1.6
       hydro 2 s 2
       hydro 3 d 2.6
  #  "Second tier" - improvements: -4.69 meV to -0.41 meV
  #     hydro 3 p 4.6
  #     hydro 2 p 1.8
  #     hydro 3 s 6.2
  #     hydro 4 d 4.7
  #     hydro 4 f 4.1
  #  "Third tier" - improvements: -0.20 meV to -0.15 meV
  #     hydro 4 d 0.95
  #     hydro 3 p 6.2
  #     hydro 3 s 1.7
  #  Further functions, listed for completeness
  #     VB: The following functions are only listed for completeness; test very
  #         carefully before any kind of production use. From the point of view
  #         of the basis construction, their main role is to fill up space,
  #         and they are solely determined by the location of the cutoff potential.
  #     hydro 3 p 0.1  # -0.15 meV
  #     hydro 4 d 5    # -0.12 meV
  #     hydro 4 f 0.1  # -0.14 meV
  #     hydro 5 g 0.1  # -0.06 meV
  
  
  ################################################################################
  #
  #  FHI-aims code project
  #  VB, Fritz-Haber Institut, 2010
  #
  #  Suggested "light" defaults for P atom (to be pasted into control.in file)
  #  Be sure to double-check any results obtained with these settings for post-processing,
  #  e.g., with the "tight" defaults and larger basis sets.
  #
  ################################################################################
    species        P
  #     global species definitions
      nucleus             15
      mass                30.973762
  #
      l_hartree           4
  #
      cut_pot             3.5          1.5  1.0
      basis_dep_cutoff    1e-4
  #
      radial_base         43 5.0
      radial_multiplier   1
      angular_grids       specified
        division   0.5527   50
        division   0.8801  110
        division   1.1447  194
        division   1.3165  302
  #      division   1.4113  434
  #      division   1.4781  590
  #      division   1.5482  770
  #      division   1.5845  974
  #      division   2.2606 1202
        outer_grid  302
  ################################################################################
  #
  #  Definition of "minimal" basis
  #
  ################################################################################
  #     valence basis states
      valence      3  s   2.
      valence      3  p   3.
  #     ion occupancy
      ion_occ      3  s   1.
      ion_occ      3  p   2.
  ################################################################################
  #
  #  Suggested additional basis functions. For production calculations,
  #  uncomment them one after another (the most important basis functions are
  #  listed first).
  #
  #  Constructed for dimers: 1.625 A, 1.875 A, 2.5 A, 3.25 A, 4.0 A
  #
  ################################################################################
  #  "First tier" - improvements: -726.20 meV to -35.91 meV
       ionic 3 d auto
       ionic 3 p auto
  #     hydro 4 f 6.2
  #     hydro 5 g 8.6
       ionic 3 s auto
  #  "Second tier" - improvements: -16.02 meV to -1.71 meV
  #     hydro 4 d 6.2
  #     hydro 4 p 9.2
  #     hydro 5 f 9.8
  #     hydro 1 s 0.7
  #     hydro 5 g 13.2
  #  "Third tier" - improvements: -1.82 meV to -0.20 meV
  #     hydro 3 p 2.5
  #     hydro 4 d 6.4
  #     hydro 5 f 11.2
  #     hydro 2 s 1.5
  #  "Fourth tier" - improvements: -0.91 meV to -0.17 meV
  #     hydro 3 d 16.8
  #     hydro 5 g 18
  #     hydro 4 p 4.5
  #     hydro 3 s 2.1
  #  Further basis functions that fell out of the optimization - < -0.09 meV
  #     hydro 4 p 10.4
  #     hydro 4 d 17.6
  #     hydro 4 s 11.2
  ################################################################################
  #
  #  FHI-aims code project
  #  VB, Fritz-Haber Institut, 2009
  #
  #  Suggested "light" defaults for S atom (to be pasted into control.in file)
  #  Be sure to double-check any results obtained with these settings for post-processing,
  #  e.g., with the "tight" defaults and larger basis sets.
  #
  ################################################################################
    species        S
  #     global species definitions
      nucleus             16
      mass                32.065
  #
      l_hartree           4
  #
      cut_pot             3.5          1.5  1.0
      basis_dep_cutoff    1e-4
  #
      radial_base         44 5.0
      radial_multiplier   1
      angular_grids       specified
        division   0.4665  110
        division   0.5810  194
        division   0.7139  302
  #      division   0.8274  434
  #      division   0.9105  590
  #      division   1.0975  770
  #      division   1.2028  974
  #      outer_grid  974
        outer_grid  302
  ################################################################################
  #
  #  Definition of "minimal" basis
  #
  ################################################################################
  #     valence basis states
      valence      3  s   2.
      valence      3  p   4.
  #     ion occupancy
      ion_occ      3  s   1.
      ion_occ      3  p   3.
  ################################################################################
  #
  #  Suggested additional basis functions. For production calculations,
  #  uncomment them one after another (the most important basis functions are
  #  listed first).
  #
  #  Constructed for dimers: 1.6 A, 1.9 A, 2.5 A, 3.25 A, 4.0 A
  #
  ################################################################################
  #  "First tier" - improvements: -652.81 meV to -45.53 meV
       ionic 3 d auto
       hydro 2 p 1.8
  #     hydro 4 f 7
       ionic 3 s auto
  #  "Second tier" - improvements: -30.20 meV to -1.74 meV
  #     hydro 4 d 6.2
  #     hydro 5 g 10.8
  #     hydro 4 p 4.9
  #     hydro 5 f 10
  #     hydro 1 s 0.8
  #  "Third tier" - improvements: -1.04 meV to -0.20 meV
  #     hydro 3 d 3.9
  #     hydro 3 d 2.7
  #     hydro 5 g 12
  #     hydro 4 p 10.4
  #     hydro 5 f 12.4
  #     hydro 2 s 1.9
  #  "Fourth tier" - improvements: -0.35 meV to -0.06 meV
  #     hydro 4 d 10.4
  #     hydro 4 p 7.2
  #     hydro 4 d 10
  #     hydro 5 g 19.2
  #     hydro 4 s 12
  
  ################################################################################
  #
  #  FHI-aims code project
  #  VB, Fritz-Haber Institut, 2009
  #
  #  Suggested "light" defaults for Cl atom (to be pasted into control.in file)
  #  Be sure to double-check any results obtained with these settings for post-processing,
  #  e.g., with the "tight" defaults and larger basis sets.
  #
  ################################################################################
    species        Cl
  #     global species definitions
      nucleus             17
      mass                35.453
  #
      l_hartree           4
  #
      cut_pot             3.5          1.5  1.0
      basis_dep_cutoff    1e-4
  #
      radial_base         45 5.0
      radial_multiplier   1
      angular_grids       specified
        division   0.4412  110
        division   0.5489  194
        division   0.6734  302
  #      division   0.7794  434
  #      division   0.9402  590
  #      division   1.0779  770
  #      division   1.1792  974
  #      outer_grid  974
        outer_grid  302
  ################################################################################
  #
  #  Definition of "minimal" basis
  #
  ################################################################################
  #     valence basis states
      valence      3  s   2.
      valence      3  p   5.
  #     ion occupancy
      ion_occ      3  s   1.
      ion_occ      3  p   4.
  ################################################################################
  #
  #  Suggested additional basis functions. For production calculations,
  #  uncomment them one after another (the most important basis functions are
  #  listed first).
  #
  #  Constructed for dimers: 1.65 A, 2.0 A, 2.5 A, 3.25 A, 4.0 A
  #
  ################################################################################
  #  "First tier" - improvements: -429.57 meV to -15.03 meV
       ionic 3 d auto
       hydro 2 p 1.9
  #     hydro 4 f 7.4
       ionic 3 s auto
  #     hydro 5 g 10.4
  #  "Second tier" - improvements: -7.84 meV to -0.48 meV
  #     hydro 3 d 3.3
  #     hydro 5 f 9.8
  #     hydro 1 s 0.75
  #     hydro 5 g 11.2
  #     hydro 4 p 10.4
  #  "Third tier" - improvements: -1.00 meV to -0.12 meV
  #     hydro 4 d 12.8
  #     hydro 4 f 4.6
  #     hydro 4 d 10.8
  #     hydro 2 s 1.8
  #     hydro 3 p 3
  #  Further functions that fell out - improvements: -0.10 meV and below
  #     hydro 5 f 14.4
  #     hydro 4 s 12.8
  #     hydro 3 d 11.6
  #     hydro 4 s 4.1
  
  -----------------------------------------------------------------------
  Completed first pass over input file control.in .
  -----------------------------------------------------------------------
  
  
  -----------------------------------------------------------------------
  Parsing geometry.in (first pass over file, find array dimensions only).
  The contents of geometry.in will be repeated verbatim below
  unless switched off by setting 'verbatim_writeout .false.' .
  in the first line of geometry.in .
  -----------------------------------------------------------------------
  
  #=======================================================
  # FHI-aims file: geometry.in.1
  # Created using the Atomic Simulation Environment (ASE)
  # Sat Jul 23 22:56:02 2022
  #=======================================================
  lattice_vector 9.8979997634999997 0.0000000000000000 0.0000000000000000
  lattice_vector 0.0000000000000000 9.8979997634999997 0.0000000000000000
  lattice_vector 0.0000000000000000 0.0000000000000000 9.8979997634999997
  atom 3.0345428000000001 0.1872368600000000 6.7922603700000002 Li
  atom 3.5331914100000001 0.0802056800000000 2.7915241800000001 Li
  atom 6.8339964999999996 3.1609761100000000 0.3716538800000000 Li
  atom 6.8650606800000000 6.7329173100000004 -0.0874852600000000 Li
  atom 0.3314587000000000 6.7278266999999996 3.1197138700000000 Li
  atom 9.4976219700000009 6.6208682100000003 6.9167337900000003 Li
  atom -0.0554844500000000 2.9715935199999999 6.6250046800000000 Li
  atom 3.6827168299999999 6.3089248800000002 3.8897801400000001 Li
  atom 6.6952713099999999 8.1055386899999995 5.0589177100000002 Li
  atom 5.3321213099999998 2.0995641599999999 2.6694334199999998 Li
  atom 1.1769193600000001 8.6972967299999997 3.8052142000000000 Li
  atom 0.2467115300000000 2.1986389800000001 2.1029864699999998 Li
  atom 7.8061244299999997 -0.1128515900000000 1.6728465100000001 Li
  atom 8.1729122200000006 9.9250895400000001 8.0740335200000004 Li
  atom 2.0921995500000001 5.7830383500000000 7.3445644100000003 Li
  atom 5.8989728699999997 5.4777728100000003 7.1045727400000001 Li
  atom 7.2689286299999996 5.2227494600000002 4.6505856899999998 Li
  atom 0.6153643800000000 8.5813039100000008 2.3872299400000001 Li
  atom 1.6893513400000000 1.9655062599999999 9.5400108800000005 Li
  atom 4.6260294300000000 6.7591489800000000 4.9488119299999997 Li
  atom 0.0081609400000000 -0.0117910800000000 4.9183067100000004 P
  atom 4.8929847700000000 0.0604535500000000 -0.1340192100000000 P
  atom 0.0510094800000000 4.9893822999999999 0.0778722500000000 P
  atom 5.0572051599999996 4.8714473600000003 4.8181855200000001 P
  atom 1.1506171900000000 8.6423898000000001 6.1007710299999998 S
  atom 8.5965499100000002 1.1064078399999999 6.0562356599999996 S
  atom 8.7270295299999994 8.6827929800000003 3.7217594799999998 S
  atom 1.2663170600000000 1.2297058400000000 3.8762679599999998 S
  atom 6.0772003500000000 1.2928268100000000 8.5947161600000008 S
  atom 6.0123846099999998 8.7370763300000007 1.0684056000000000 S
  atom 3.6762799500000001 8.7763089999999995 8.5710134799999995 S
  atom 3.6969616500000000 1.2906963800000000 0.9734614900000000 S
  atom 8.7234750499999993 5.9582073900000001 1.4445069200000000 S
  atom 1.0654511799999999 6.3104565099999999 8.8024172800000002 S
  atom 8.7537265499999997 3.7811655000000002 8.8385333399999997 S
  atom 1.4207658599999999 3.8797812999999999 1.1628748400000000 S
  atom 6.0818337600000003 6.2506537399999997 3.7186957999999999 S
  atom 6.3250500100000000 3.7921890700000001 6.0115254000000000 S
  atom 4.0858136099999998 3.6118473199999999 3.5268009100000000 S
  atom 3.6289256399999998 5.7602658299999998 6.0479883399999999 S
  atom 2.3668205900000001 2.4936749499999999 7.2540696999999996 Cl
  atom 7.3134333600000003 7.5393838000000004 7.4843314599999999 Cl
  atom 4.7367071799999998 -0.2327336200000000 4.8929528400000004 Cl
  atom 5.1615237900000004 5.0305814000000000 -0.2583427600000000 Cl
  atom -0.0497286300000000 0.2602403500000000 0.1663799400000000 Cl
  atom 0.0300422700000000 4.9570735299999997 5.0233017999999996 Cl
  atom 7.5963873000000000 2.3519079600000001 2.4720184900000000 Cl
  atom 2.4716053100000002 7.5248888599999999 2.4620893100000001 Cl
  
  -----------------------------------------------------------------------
  Completed first pass over input file geometry.in .
  -----------------------------------------------------------------------
  

  Basic array size parameters:
  | Number of species                 :        4
  | Number of atoms                   :       48
  | Number of lattice vectors         :        3
  | Max. basis fn. angular momentum   :        2
  | Max. atomic/ionic basis occupied n:        3
  | Max. number of basis fn. types    :        3
  | Max. radial fns per species/type  :        5
  | Max. logarithmic grid size        :     1362
  | Max. radial integration grid size :       45
  | Max. angular integration grid size:      302
  | Max. angular grid division number :        8
  | Radial grid for Hartree potential :     1362
  | Number of spin channels           :        1

------------------------------------------------------------
          Reading file control.in.
------------------------------------------------------------
  XC: Using PBE gradient-corrected functionals.
  Convergence accuracy of total energy:  0.1000E-05
  Convergence accuracy of sum of eigenvalues:  0.1000E-02
  Convergence accuracy of self-consistent charge density:  0.1000E-05
  Convergence accuracy of forces:  0.1000E-03
  Friction is calculated at temperature of   0.3000E+03 K
  Found k-point grid:         3         3         3
 
  Reading configuration options for species Li                  .
  | Found nuclear charge :   3.0000
  | Found atomic mass :    6.94100000000000      amu
  | Found l_max for Hartree potential  :   4
  | Found cutoff potl. onset [A], width [A], scale factor :    3.50000    1.50000    1.00000
  | Threshold for basis-dependent cutoff potential is   0.100000E-03
  | Found data for basic radial integration grid :    29 points, outermost radius =    5.000 A
  | Found multiplier for basic radial grid :   1
  | Found angular grid specification: user-specified.
  | Specified grid contains     4 separate shells.
  | Check grid settings after all constraints further below.
  | Found free-atom valence shell :  2 s   1.000
  | Found free-ion valence shell :  1 s   2.000
  | Found hydrogenic basis function :  2 p   1.600
  | Found hydrogenic basis function :  2 s   2.000
  | Found hydrogenic basis function :  3 d   2.600
  Species Li                  : Missing cutoff potential type.
  Defaulting to exp(1/x)/(1-x)^2 type cutoff potential.
  Species Li: No 'logarithmic' tag. Using default grid for free atom:
  | Default logarithmic grid data [bohr] : 0.1000E-03 0.1000E+03 0.1012E+01
  Species Li: On-site basis accuracy parameter (for Gram-Schmidt orthonormalisation) not specified.
  Using default value basis_acc =  0.1000000E-03.
  Species Li                  : Using default innermost maximum threshold i_radial=  2 for radial functions.
  Species Li                  : Default cutoff onset for free atom density etc. : 0.35000000E+01 AA.
  Species Li                  : Basic radial grid will be enhanced according to radial_multiplier =   1, to contain    29 grid points.
 
  Reading configuration options for species P                   .
  | Found nuclear charge :  15.0000
  | Found atomic mass :    30.9737620000000      amu
  | Found l_max for Hartree potential  :   4
  | Found cutoff potl. onset [A], width [A], scale factor :    3.50000    1.50000    1.00000
  | Threshold for basis-dependent cutoff potential is   0.100000E-03
  | Found data for basic radial integration grid :    43 points, outermost radius =    5.000 A
  | Found multiplier for basic radial grid :   1
  | Found angular grid specification: user-specified.
  | Specified grid contains     5 separate shells.
  | Check grid settings after all constraints further below.
  | Found free-atom valence shell :  3 s   2.000
  | Found free-atom valence shell :  3 p   3.000
  | Found free-ion valence shell :  3 s   1.000
  | Found free-ion valence shell :  3 p   2.000
  | Found ionic basis function :  3 d , default cutoff radius.
  | Found ionic basis function :  3 p , default cutoff radius.
  | Found ionic basis function :  3 s , default cutoff radius.
  Species P                   : Missing cutoff potential type.
  Defaulting to exp(1/x)/(1-x)^2 type cutoff potential.
  Species P : No 'logarithmic' tag. Using default grid for free atom:
  | Default logarithmic grid data [bohr] : 0.1000E-03 0.1000E+03 0.1012E+01
  | Will include ionic basis functions of  2.0-fold positive P                    ion.
  Species P : On-site basis accuracy parameter (for Gram-Schmidt orthonormalisation) not specified.
  Using default value basis_acc =  0.1000000E-03.
  Species P                   : Using default innermost maximum threshold i_radial=  2 for radial functions.
  Species P                   : Default cutoff onset for free atom density etc. : 0.35000000E+01 AA.
  Species P                   : Basic radial grid will be enhanced according to radial_multiplier =   1, to contain    43 grid points.
 
  Reading configuration options for species S                   .
  | Found nuclear charge :  16.0000
  | Found atomic mass :    32.0650000000000      amu
  | Found l_max for Hartree potential  :   4
  | Found cutoff potl. onset [A], width [A], scale factor :    3.50000    1.50000    1.00000
  | Threshold for basis-dependent cutoff potential is   0.100000E-03
  | Found data for basic radial integration grid :    44 points, outermost radius =    5.000 A
  | Found multiplier for basic radial grid :   1
  | Found angular grid specification: user-specified.
  | Specified grid contains     4 separate shells.
  | Check grid settings after all constraints further below.
  | Found free-atom valence shell :  3 s   2.000
  | Found free-atom valence shell :  3 p   4.000
  | Found free-ion valence shell :  3 s   1.000
  | Found free-ion valence shell :  3 p   3.000
  | Found ionic basis function :  3 d , default cutoff radius.
  | Found hydrogenic basis function :  2 p   1.800
  | Found ionic basis function :  3 s , default cutoff radius.
  Species S                   : Missing cutoff potential type.
  Defaulting to exp(1/x)/(1-x)^2 type cutoff potential.
  Species S : No 'logarithmic' tag. Using default grid for free atom:
  | Default logarithmic grid data [bohr] : 0.1000E-03 0.1000E+03 0.1012E+01
  | Will include ionic basis functions of  2.0-fold positive S                    ion.
  Species S : On-site basis accuracy parameter (for Gram-Schmidt orthonormalisation) not specified.
  Using default value basis_acc =  0.1000000E-03.
  Species S                   : Using default innermost maximum threshold i_radial=  2 for radial functions.
  Species S                   : Default cutoff onset for free atom density etc. : 0.35000000E+01 AA.
  Species S                   : Basic radial grid will be enhanced according to radial_multiplier =   1, to contain    44 grid points.
 
  Reading configuration options for species Cl                  .
  | Found nuclear charge :  17.0000
  | Found atomic mass :    35.4530000000000      amu
  | Found l_max for Hartree potential  :   4
  | Found cutoff potl. onset [A], width [A], scale factor :    3.50000    1.50000    1.00000
  | Threshold for basis-dependent cutoff potential is   0.100000E-03
  | Found data for basic radial integration grid :    45 points, outermost radius =    5.000 A
  | Found multiplier for basic radial grid :   1
  | Found angular grid specification: user-specified.
  | Specified grid contains     4 separate shells.
  | Check grid settings after all constraints further below.
  | Found free-atom valence shell :  3 s   2.000
  | Found free-atom valence shell :  3 p   5.000
  | Found free-ion valence shell :  3 s   1.000
  | Found free-ion valence shell :  3 p   4.000
  | Found ionic basis function :  3 d , default cutoff radius.
  | Found hydrogenic basis function :  2 p   1.900
  | Found ionic basis function :  3 s , default cutoff radius.
  Species Cl                  : Missing cutoff potential type.
  Defaulting to exp(1/x)/(1-x)^2 type cutoff potential.
  Species Cl: No 'logarithmic' tag. Using default grid for free atom:
  | Default logarithmic grid data [bohr] : 0.1000E-03 0.1000E+03 0.1012E+01
  | Will include ionic basis functions of  2.0-fold positive Cl                   ion.
  Species Cl: On-site basis accuracy parameter (for Gram-Schmidt orthonormalisation) not specified.
  Using default value basis_acc =  0.1000000E-03.
  Species Cl                  : Using default innermost maximum threshold i_radial=  2 for radial functions.
  Species Cl                  : Default cutoff onset for free atom density etc. : 0.35000000E+01 AA.
  Species Cl                  : Basic radial grid will be enhanced according to radial_multiplier =   1, to contain    45 grid points.
 
  Finished reading input file 'control.in'. Consistency checks are next.
 
  MPI_IN_PLACE appears to work with this MPI implementation.
  | Keeping use_mpi_in_place .true. (see manual).
  Target number of points in a grid batch is not set. Defaulting to  100
  Method for grid partitioning is not set. Defaulting to parallel hash+maxmin partitioning.
  Batch size limit is not set. Defaulting to    200
  By default, will store active basis functions for each batch.
  If in need of memory, prune_basis_once .false. can be used to disable this option.
  communication_type for Hartree potential was not specified.
  Defaulting to calc_hartree .
  Defaulting to Pulay charge density mixer.
  Pulay mixer: Number of relevant iterations not set.
  Defaulting to    8 iterations.
  Pulay mixer: Number of initial linear mixing iterations not set.
  Defaulting to    0 iterations.
  Work space size for distributed Hartree potential not set.
  Defaulting to   0.200000E+03 MB.
  Mixing parameter for charge density mixing has not been set.
  Using default: charge_mix_param =     0.0500.
  The mixing parameter will be adjusted in iteration number     2 of the first full s.c.f. cycle only.
  Algorithm-dependent basis array size parameters:
  | n_max_pulay                         :        8
  Maximum number of self-consistency iterations not provided.
  Presetting  1000 iterations.
  Presetting      1001 iterations before the initial mixing cycle
  is restarted anyway using the sc_init_iter criterion / keyword.
  Presetting a factor      1.000 between actual scf density residual
  and density convergence criterion sc_accuracy_rho below which sc_init_iter
  takes no effect.
  Geometry relaxation not requested: no relaxation will be performed.
  Handling of forces: Unphysical translation and rotation will be removed from forces.
  No accuracy limit for integral partition fn. given. Defaulting to  0.1000E-14.
  No threshold value for u(r) in integrations given. Defaulting to  0.1000E-05.
  No occupation type (smearing scheme) given. Defaulting to Gaussian broadening, width =  0.1000E-01 eV.
  The width will be adjusted in iteration number     2 of the first full s.c.f. cycle only.
  S.C.F. convergence parameters will be adjusted in iteration number     2 of the first full s.c.f. cycle only.
  No accuracy for occupation numbers given. Defaulting to  0.1000E-12.
  No threshold value for occupation numbers given. Defaulting to  0.0000E+00.
  No accuracy for fermi level given. Defaulting to  0.1000E-19.
  Maximum # of iterations to find E_F not set. Defaulting to  200.
  Preferred method for the eigenvalue solver ('KS_method') not specified in 'control.in'.
  Defaulting to serial version, 'lapack_fast', since more k-points than CPUs available.
  Will not use alltoall communication since running on < 1024 CPUs.
  Threshold for basis singularities not set.
  Default threshold for basis singularities:  0.1000E-04
  partition_type (choice of integration weights) for integrals was not specified.
  | Using a version of the partition function of Stratmann and coworkers ('stratmann_smoother').
  | At each grid point, the set of atoms used to build the partition table is smoothly restricted to
  | only those atoms whose free-atom density would be non-zero at that grid point.
  Partitioning for Hartree potential was not defined. Using partition_type for integrals.
  | Adjusted default value of keyword multip_moments_threshold to:       0.10000000E-11
  | This value may affect high angular momentum components of the Hartree potential in periodic systems.
  Spin handling was not defined in control.in. Defaulting to unpolarized case.
  Angular momentum expansion for Kerker preconditioner not set explicitly.
  | Using default value of   0
  No explicit requirement for turning off preconditioner.
  | By default, it will be turned off when the charge convergence reaches
  | sc_accuracy_rho  =   0.100000E-05
  | sc_accuracy_eev  =   0.100000E-02
  | sc_accuracy_etot =   0.100000E-05
  No special mixing parameter while Kerker preconditioner is on.
  Using default: charge_mix_param =     0.0500.
  No q(lm)/r^(l+1) cutoff set for long-range Hartree potential.
  | Using default value of  0.100000E-09 .
  | Verify using the multipole_threshold keyword.
  Defaulting to new monopole extrapolation.
  Density update method: automatic selection selected.
  Using density matrix based charge density update.
  Using density matrix based charge density update.
  Using packed matrix style: index .
  Defaulting to use time-reversal symmetry for k-point grid.
------------------------------------------------------------


------------------------------------------------------------
          Reading geometry description geometry.in.
------------------------------------------------------------
 * Warning! You did not set the 'relativistic' flag in input file 'control.in'.
 * Since you are not attempting to treat any elements beyond Ca(Z=20), FHI-aims
 * will default to 'relativistic none'.
 * You must ensure that this is really what you want!!
 * For example, DO NOT compute total-energy differences between results from
 * different settings of the 'relativistic' flag.
  Input structure read successfully.
  The structure contains       48 atoms,  and a total of        512.000 electrons.

  Input geometry:
  | Unit cell:
  |        9.89799976        0.00000000        0.00000000
  |        0.00000000        9.89799976        0.00000000
  |        0.00000000        0.00000000        9.89799976
  | Atomic structure:
  |       Atom                x [A]            y [A]            z [A]
  |    1: Species Li            3.03454280        0.18723686        6.79226037
  |    2: Species Li            3.53319141        0.08020568        2.79152418
  |    3: Species Li            6.83399650        3.16097611        0.37165388
  |    4: Species Li            6.86506068        6.73291731       -0.08748526
  |    5: Species Li            0.33145870        6.72782670        3.11971387
  |    6: Species Li            9.49762197        6.62086821        6.91673379
  |    7: Species Li           -0.05548445        2.97159352        6.62500468
  |    8: Species Li            3.68271683        6.30892488        3.88978014
  |    9: Species Li            6.69527131        8.10553869        5.05891771
  |   10: Species Li            5.33212131        2.09956416        2.66943342
  |   11: Species Li            1.17691936        8.69729673        3.80521420
  |   12: Species Li            0.24671153        2.19863898        2.10298647
  |   13: Species Li            7.80612443       -0.11285159        1.67284651
  |   14: Species Li            8.17291222        9.92508954        8.07403352
  |   15: Species Li            2.09219955        5.78303835        7.34456441
  |   16: Species Li            5.89897287        5.47777281        7.10457274
  |   17: Species Li            7.26892863        5.22274946        4.65058569
  |   18: Species Li            0.61536438        8.58130391        2.38722994
  |   19: Species Li            1.68935134        1.96550626        9.54001088
  |   20: Species Li            4.62602943        6.75914898        4.94881193
  |   21: Species P             0.00816094       -0.01179108        4.91830671
  |   22: Species P             4.89298477        0.06045355       -0.13401921
  |   23: Species P             0.05100948        4.98938230        0.07787225
  |   24: Species P             5.05720516        4.87144736        4.81818552
  |   25: Species S             1.15061719        8.64238980        6.10077103
  |   26: Species S             8.59654991        1.10640784        6.05623566
  |   27: Species S             8.72702953        8.68279298        3.72175948
  |   28: Species S             1.26631706        1.22970584        3.87626796
  |   29: Species S             6.07720035        1.29282681        8.59471616
  |   30: Species S             6.01238461        8.73707633        1.06840560
  |   31: Species S             3.67627995        8.77630900        8.57101348
  |   32: Species S             3.69696165        1.29069638        0.97346149
  |   33: Species S             8.72347505        5.95820739        1.44450692
  |   34: Species S             1.06545118        6.31045651        8.80241728
  |   35: Species S             8.75372655        3.78116550        8.83853334
  |   36: Species S             1.42076586        3.87978130        1.16287484
  |   37: Species S             6.08183376        6.25065374        3.71869580
  |   38: Species S             6.32505001        3.79218907        6.01152540
  |   39: Species S             4.08581361        3.61184732        3.52680091
  |   40: Species S             3.62892564        5.76026583        6.04798834
  |   41: Species Cl            2.36682059        2.49367495        7.25406970
  |   42: Species Cl            7.31343336        7.53938380        7.48433146
  |   43: Species Cl            4.73670718       -0.23273362        4.89295284
  |   44: Species Cl            5.16152379        5.03058140       -0.25834276
  |   45: Species Cl           -0.04972863        0.26024035        0.16637994
  |   46: Species Cl            0.03004227        4.95707353        5.02330180
  |   47: Species Cl            7.59638730        2.35190796        2.47201849
  |   48: Species Cl            2.47160531        7.52488886        2.46208931

  Lattice parameters for 3D lattice (in Angstroms) :     9.898000    9.898000    9.898000
  Angle(s) between unit vectors (in degrees)      :    90.000000   90.000000   90.000000

  |

  | The smallest distance between any two atoms is         1.48798143 AA.
  |
  | The first atom of this pair is atom number                      8 .
  | The second atom of this pair is atom number                    20 .
  | Wigner-Seitz cell of the first atom image           0     0     0 .
  | (The Wigner-Seitz cell of the second atom is 0 0 0  by definition.)

  Symmetry information by spglib:
  | Precision set to  0.1E-04
  | Number of Operations  : 1
  | Space group           : 1
  | International         : P1
  | Schoenflies           : C1^1

  Quantities derived from the lattice vectors:
  | Reciprocal lattice vector 1:  0.634793  0.000000  0.000000
  | Reciprocal lattice vector 2:  0.000000  0.634793  0.000000
  | Reciprocal lattice vector 3:  0.000000  0.000000  0.634793
  | Unit cell volume                               :   0.969711E+03  A^3

  Range separation radius for Ewald summation (hartree_convergence_parameter):      3.90166475 bohr.

  Fractional coordinates:
                         L1                L2                L3
       atom_frac         0.30658142        0.01891664        0.68622555  Li
       atom_frac         0.35696014        0.00810322        0.28202912  Li
       atom_frac         0.69044218        0.31935504        0.03754838  Li
       atom_frac         0.69358061        0.68023009       -0.00883868  Li
       atom_frac         0.03348744        0.67971579        0.31518629  Li
       atom_frac         0.95954963        0.66890972        0.69880117  Li
       atom_frac        -0.00560562        0.30022162        0.66932763  Li
       atom_frac         0.37206677        0.63739392        0.39298649  Li
       atom_frac         0.67642670        0.81890674        0.51110505  Li
       atom_frac         0.53870695        0.21212005        0.26969423  Li
       atom_frac         0.11890477        0.87869236        0.38444275  Li
       atom_frac         0.02492539        0.22212963        0.21246580  Li
       atom_frac         0.78865676       -0.01140145        0.16900854  Li
       atom_frac         0.82571352        1.00273689        0.81572375  Li
       atom_frac         0.21137600        0.58426333        0.74202511  Li
       atom_frac         0.59597626        0.55342220        0.71777863  Li
       atom_frac         0.73438359        0.52765706        0.46985106  Li
       atom_frac         0.06217058        0.86697354        0.24118307  Li
       atom_frac         0.17067603        0.19857611        0.96383220  Li
       atom_frac         0.46737013        0.68288029        0.49998101  Li
       atom_frac         0.00082450       -0.00119126        0.49689905  P
       atom_frac         0.49434076        0.00610765       -0.01354003  P
       atom_frac         0.00515351        0.50407986        0.00786747  P
       atom_frac         0.51093203        0.49216483        0.48678376  P
       atom_frac         0.11624745        0.87314508        0.61636403  S
       atom_frac         0.86851385        0.11178095        0.61186460  S
       atom_frac         0.88169628        0.87722703        0.37601127  S
       atom_frac         0.12793666        0.12423781        0.39162134  S
       atom_frac         0.61398267        0.13061496        0.86832859  S
       atom_frac         0.60743431        0.88271131        0.10794157  S
       atom_frac         0.37141645        0.88667501        0.86593389  S
       atom_frac         0.37350593        0.13039972        0.09834931  S
       atom_frac         0.88133716        0.60196075        0.14593928  S
       atom_frac         0.10764308        0.63754866        0.88931274  S
       atom_frac         0.88439349        0.38201309        0.89296156  S
       atom_frac         0.14354070        0.39197630        0.11748584  S
       atom_frac         0.61445079        0.63150676        0.37570175  S
       atom_frac         0.63902305        0.38312681        0.60734750  S
       atom_frac         0.41279185        0.36490679        0.35631451  S
       atom_frac         0.36663222        0.58196262        0.61103137  S
       atom_frac         0.23912110        0.25193726        0.73288239  Cl
       atom_frac         0.73887993        0.76170782        0.75614585  Cl
       atom_frac         0.47855196       -0.02351320        0.49433754  Cl
       atom_frac         0.52147140        0.50824222       -0.02610050  Cl
       atom_frac        -0.00502411        0.02629222        0.01680945  Cl
       atom_frac         0.00303519        0.50081568        0.50750676  Cl
       atom_frac         0.76746691        0.23761447        0.24974930  Cl
       atom_frac         0.24970755        0.76024339        0.24874615  Cl

  Number of empty states per atom not set in control.in - providing a guess from actual geometry.
  | Total number of empty states used during s.c.f. cycle:      114
  If you use a very high smearing, use empty_states (per atom!) in control.in to increase this value.

  Structure-dependent array size parameters: 
  | Maximum number of distinct radial functions  :       29
  | Maximum number of basis functions            :      724
  | Number of Kohn-Sham states (occupied + empty):      370
------------------------------------------------------------

------------------------------------------------------------
          Preparing all fixed parts of the calculation.
------------------------------------------------------------
  Determining machine precision:
    2.225073858507201E-308
  Setting up grids for atomic and cluster calculations.

  Creating wave function, potential, and density for free atoms.

  Species: Li

  List of occupied orbitals and eigenvalues:
    n    l              occ      energy [Ha]    energy [eV]
    1    0           2.0000        -1.876896       -51.0729
    2    0           1.0000        -0.084105        -2.2886


  Species: P

  List of occupied orbitals and eigenvalues:
    n    l              occ      energy [Ha]    energy [eV]
    1    0           2.0000       -76.351489     -2077.6297
    2    0           2.0000        -6.353717      -172.8934
    3    0           2.0000        -0.506059       -13.7706
    2    1           6.0000        -4.569386      -124.3393
    3    1           3.0000        -0.198107        -5.3908


  Species: S

  List of occupied orbitals and eigenvalues:
    n    l              occ      energy [Ha]    energy [eV]
    1    0           2.0000       -88.105825     -2397.4815
    2    0           2.0000        -7.730144      -210.3479
    3    0           2.0000        -0.627748       -17.0819
    2    1           6.0000        -5.747971      -156.4103
    3    1           4.0000        -0.255786        -6.9603


  Species: Cl

  List of occupied orbitals and eigenvalues:
    n    l              occ      energy [Ha]    energy [eV]
    1    0           2.0000      -100.709620     -2740.4482
    2    0           2.0000        -9.221874      -250.9399
    3    0           2.0000        -0.753366       -20.5001
    2    1           6.0000        -7.038743      -191.5339
    3    1           5.0000        -0.315359        -8.5813

  Creating fixed part of basis set: Ionic, confined, hydrogenic.
 
  Li                   hydrogenic:
 
  List of hydrogenic basis orbitals: 
    n    l      effective z      eigenvalue [eV]  inner max. [A]     outer max. [A]     outer radius [A]   
    2    1         1.600000        -8.6069           1.303334           1.303334           4.591005
    2    0         2.000000       -13.5631           0.203259           1.385485           4.591005
    3    2         2.600000        -9.9241           1.769240           1.769240           4.591005
 
 
  P                    ion:

  List of free ionic orbitals and eigenvalues:
    n    l      energy [Ha]    energy [eV]
    1    0       -77.297133     -2103.3620
    2    0        -7.273914      -197.9333
    3    0        -1.267536       -34.4914
    2    1        -5.491316      -149.4263
    3    1        -0.913470       -24.8568


  List of ionic basis orbitals and eigenvalues:
    n    l      energy [Ha]    energy [eV]    outer radius [A]
    3    2        -0.457308       -12.4440       4.554583
    3    1        -0.913443       -24.8560       4.337222
    3    0        -1.267519       -34.4910       3.885335

 
  S                    ion:

  List of free ionic orbitals and eigenvalues:
    n    l      energy [Ha]    energy [eV]
    1    0       -89.127201     -2425.2745
    2    0        -8.724378      -237.4024
    3    0        -1.464668       -39.8556
    2    1        -6.744348      -183.5230
    3    1        -1.048520       -28.5317


  List of ionic basis orbitals and eigenvalues:
    n    l      energy [Ha]    energy [eV]    outer radius [A]
    3    2        -0.496135       -13.5005       4.539062
    3    0        -1.464653       -39.8552       3.642502

 
  S                    hydrogenic:
 
  List of hydrogenic basis orbitals: 
    n    l      effective z      eigenvalue [eV]  inner max. [A]     outer max. [A]     outer radius [A]   
    2    1         1.800000       -10.9749           1.168531           1.168531           4.594893
 
 
  Cl                   ion:

  List of free ionic orbitals and eigenvalues:
    n    l      energy [Ha]    energy [eV]
    1    0      -101.807232     -2770.3157
    2    0       -10.290876      -280.0290
    3    0        -1.664625       -45.2967
    2    1        -8.110237      -220.6908
    3    1        -1.183915       -32.2160


  List of ionic basis orbitals and eigenvalues:
    n    l      energy [Ha]    energy [eV]    outer radius [A]
    3    2        -0.529186       -14.3999       4.541334
    3    0        -1.664610       -45.2963       3.428237

 
  Cl                   hydrogenic:
 
  List of hydrogenic basis orbitals: 
    n    l      effective z      eigenvalue [eV]  inner max. [A]     outer max. [A]     outer radius [A]   
    2    1         1.900000       -12.2492           1.113321           1.113321           4.597192
 

  Adding cutoff potential to free-atom effective potential.
  Creating atomic-like basis functions for current effective potential.

  Species Li                  :

  List of atomic basis orbitals and eigenvalues:
    n    l      energy [Ha]    energy [eV]    outer radius [A]
    1    0        -1.876896       -51.0729       4.062706
    2    0        -0.084105        -2.2886       4.591005


  Species P                   :

  List of atomic basis orbitals and eigenvalues:
    n    l      energy [Ha]    energy [eV]    outer radius [A]
    1    0       -76.351489     -2077.6297       0.736837
    2    0        -6.353717      -172.8934       2.532824
    3    0        -0.506059       -13.7706       4.499242
    2    1        -4.569386      -124.3393       2.862183
    3    1        -0.198107        -5.3908       4.554583


  Species S                   :

  List of atomic basis orbitals and eigenvalues:
    n    l      energy [Ha]    energy [eV]    outer radius [A]
    1    0       -88.105825     -2397.4815       0.682391
    2    0        -7.730144      -210.3479       2.317169
    3    0        -0.627748       -17.0819       4.483910
    2    1        -5.747971      -156.4103       2.555240
    3    1        -0.255786        -6.9603       4.539062


  Species Cl                  :

  List of atomic basis orbitals and eigenvalues:
    n    l      energy [Ha]    energy [eV]    outer radius [A]
    1    0      -100.709620     -2740.4482       0.642251
    2    0        -9.221874      -250.9399       2.128190
    3    0        -0.753366       -20.5001       4.431645
    2    1        -7.038743      -191.5339       2.346844
    3    1        -0.315359        -8.5813       4.541334

  Assembling full basis from fixed parts.
  | Species Li :   atomic orbital   1 s accepted.
  | Species Li :   atomic orbital   2 s accepted.
  | Species Li :    hydro orbital   2 s accepted.
  | Species Li :    hydro orbital   2 p accepted.
  | Species Li :    hydro orbital   3 d accepted.
  | Species P :   atomic orbital   1 s accepted.
  | Species P :   atomic orbital   2 s accepted.
  | Species P :    ionic orbital   3 s accepted.
  | Species P :   atomic orbital   3 s accepted.
  | Species P :   atomic orbital   2 p accepted.
  | Species P :    ionic orbital   3 p accepted.
  | Species P :   atomic orbital   3 p accepted.
  | Species P :    ionic orbital   3 d accepted.
  | Species S :   atomic orbital   1 s accepted.
  | Species S :   atomic orbital   2 s accepted.
  | Species S :    ionic orbital   3 s accepted.
  | Species S :   atomic orbital   3 s accepted.
  | Species S :   atomic orbital   2 p accepted.
  | Species S :   atomic orbital   3 p accepted.
  | Species S :    hydro orbital   2 p accepted.
  | Species S :    ionic orbital   3 d accepted.
  | Species Cl :   atomic orbital   1 s accepted.
  | Species Cl :   atomic orbital   2 s accepted.
  | Species Cl :    ionic orbital   3 s accepted.
  | Species Cl :   atomic orbital   3 s accepted.
  | Species Cl :   atomic orbital   2 p accepted.
  | Species Cl :   atomic orbital   3 p accepted.
  | Species Cl :    hydro orbital   2 p accepted.
  | Species Cl :    ionic orbital   3 d accepted.
 
  Basis size parameters after reduction:
  | Total number of radial functions:       29
  | Total number of basis functions :      724
 
  Per-task memory consumption for arrays in subroutine allocate_ext:
  |           7.605768MB.
  Testing on-site integration grid accuracy.
  |  Species  Function  <phi|h_atom|phi> (log., in eV)  <phi|h_atom|phi> (rad., in eV)
           1        1                -51.0729407432                -51.0729328795
           1        2                 -2.3261068990                 -2.3227046518
           1        3                 17.1966930198                 17.2358027191 ***
           1        4                  0.3867256281                  0.3982841734
           1        5                  6.2743141416                  6.2817896417
           2        6              -2077.6297159538              -2077.6288551184
           2        7               -172.8934457906               -172.8934403880
           2        8                -13.4653967551                -13.4655200798
           2        9                  6.4162845277                  6.4013396720
           2       10               -124.3393201040               -124.3393200061
           2       11                 -4.7560266034                 -4.7560495157
           2       12                  6.5873401476                  6.4958904717 ***
           2       13                  5.2911719464                  5.2826493609
           3       14              -2397.4814915323              -2397.4804563634
           3       15               -210.3479335736               -210.3479265952
           3       16                -16.8079362322                -16.8079092816
           3       17                  7.5772439785                  7.5675998324
           3       18               -156.4102581151               -156.4102580951
           3       19                 -6.9617737483                 -6.9640288036
           3       20                  7.5696988470                  7.5151244831 ***
           3       21                  6.0973034823                  6.0928113248
           4       22              -2740.4481953768              -2740.4469735573
           4       23               -250.9399497423               -250.9399403187
           4       24                -20.2462734235                -20.2462512680
           4       25                  8.9460051782                  8.9510436705
           4       26               -191.5339459398               -191.5339455009
           4       27                 -8.5819075957                 -8.5827488985
           4       28                  8.1339828089                  8.0979459360 ***
           4       29                  7.0302175114                  7.0277664253
 * Note: Onsite integrals marked "***" above are less accurate than
 * onsite_accuracy_threshold =    0.03000 eV. Usually, this is harmless.
 * When in doubt, tighten the "radial" and/or "radial_multiplier" flags to check.

  Preparing densities etc. for the partition functions (integrals / Hartree potential).

  Preparations completed.
  max(cpu_time)          :      0.412 s.
  Wall clock time (cpu1) :      0.414 s.
------------------------------------------------------------

------------------------------------------------------------
          Begin self-consistency loop: Initialization.

          Date     :  20220723, Time     :  165912.602
------------------------------------------------------------

  Initializing index lists of integration centers etc. from given atomic structure:
  Mapping all atomic coordinates to central unit cell.

  Initializing the k-points
          Using symmetry for reducing the k-points
  | k-points reduced from:       27 to       14
  | Number of k-points                             :        14
  The eigenvectors in the calculations are COMPLEX.
  | K-points in task   0:         0
  | K-points in task   1:         1
  | K-points in task   2:         1
  | K-points in task   3:         1
  | K-points in task   4:         1
  | K-points in task   5:         1
  | K-points in task   6:         1
  | K-points in task   7:         1
  | K-points in task   8:         1
  | K-points in task   9:         1
  | K-points in task  10:         1
  | K-points in task  11:         1
  | K-points in task  12:         1
  | K-points in task  13:         1
  | K-points in task  14:         1
  | K-points in task  15:         0
  | K-points in task  16:         0
  | K-points in task  17:         0
  | K-points in task  18:         0
  | K-points in task  19:         0
  | Number of basis functions in the Hamiltonian integrals :      3890
  | Number of basis functions in a single unit cell        :       724
  | Number of centers in hartree potential         :      1752
  | Number of centers in hartree multipole         :       930
  | Number of centers in electron density summation:       724
  | Number of centers in basis integrals           :       757
  | Number of centers in integrals                 :       336
  | Number of centers in hamiltonian               :       732
  | Consuming          6 KiB for k_phase.
  | Number of super-cells (origin) [n_cells]                     :         125
  | Number of super-cells (after PM_index) [n_cells]             :          28
  | Number of super-cells in hamiltonian [n_cells_in_hamiltonian]:          28
  | Size of matrix packed + index [n_hamiltonian_matrix_size] :      743636
  Partitioning the integration grid into batches with parallel hashing+maxmin method.
  | Number of batches:     4501
  | Maximal batch size:     170
  | Minimal batch size:      60
  | Average batch size:      79.829
  | Standard deviation of batch sizes:      14.059

  Integration load balanced across    20 MPI tasks.
  Work distribution over tasks is as follows:
  Task     0 has      17989 integration points.
  Task     1 has      17970 integration points.
  Task     2 has      18006 integration points.
  Task     3 has      17939 integration points.
  Task     4 has      17946 integration points.
  Task     5 has      17957 integration points.
  Task     6 has      17937 integration points.
  Task     7 has      17968 integration points.
  Task     8 has      17988 integration points.
  Task     9 has      17928 integration points.
  Task    10 has      17973 integration points.
  Task    11 has      17957 integration points.
  Task    12 has      17968 integration points.
  Task    13 has      17978 integration points.
  Task    14 has      17983 integration points.
  Task    15 has      17982 integration points.
  Task    16 has      17977 integration points.
  Task    17 has      17962 integration points.
  Task    18 has      17963 integration points.
  Task    19 has      17941 integration points.
  Initializing partition tables, free-atom densities, potentials, etc. across the integration grid (initialize_grid_storage).
  | initialize_grid_storage: Actual outermost partition radius vs. multipole_radius_free
  | (-- VB: in principle, multipole_radius_free should be larger, hence this output)
  | Species        1: Confinement radius =              4.999999999999999 AA, multipole_radius_free =              5.001180127821857 AA.
  | Species        1: outer_partition_radius set to              5.001180127821857 AA .
  | Species        2: Confinement radius =              4.999999999999999 AA, multipole_radius_free =              5.022530438398565 AA.
  | Species        2: outer_partition_radius set to              5.022530438398565 AA .
  | Species        3: Confinement radius =              4.999999999999999 AA, multipole_radius_free =              5.005414751018925 AA.
  | Species        3: outer_partition_radius set to              5.005414751018925 AA .
  | Species        4: Confinement radius =              4.999999999999999 AA, multipole_radius_free =              5.007919576009533 AA.
  | Species        4: outer_partition_radius set to              5.007919576009533 AA .
  | Original list of interatomic distances with         757 x        757 entries is created.
  | Net number of integration points:   359312
  | of which are non-zero points    :   323293
  | Numerical average free-atom electrostatic potential    :     -9.55346206 eV
  Renormalizing the initial density to the exact electron count on the 3D integration grid.
  | Initial density: Formal number of electrons (from input files) :     512.0000000000
  | Integrated number of electrons on 3D grid     :     512.0018837178
  | Charge integration error                      :       0.0018837178
  | Normalization factor for density and gradient :       0.9999963209
  Obtaining max. number of non-zero basis functions in each batch (get_n_compute_maxes).
  | Maximal number of non-zero basis functions:      430 in task     0
  | Maximal number of non-zero basis functions:      440 in task     1
  | Maximal number of non-zero basis functions:      452 in task     2
  | Maximal number of non-zero basis functions:      416 in task     3
  | Maximal number of non-zero basis functions:      452 in task     4
  | Maximal number of non-zero basis functions:      434 in task     5
  | Maximal number of non-zero basis functions:      456 in task     6
  | Maximal number of non-zero basis functions:      431 in task     7
  | Maximal number of non-zero basis functions:      431 in task     8
  | Maximal number of non-zero basis functions:      419 in task     9
  | Maximal number of non-zero basis functions:      428 in task    10
  | Maximal number of non-zero basis functions:      435 in task    11
  | Maximal number of non-zero basis functions:      422 in task    12
  | Maximal number of non-zero basis functions:      443 in task    13
  | Maximal number of non-zero basis functions:      443 in task    14
  | Maximal number of non-zero basis functions:      433 in task    15
  | Maximal number of non-zero basis functions:      420 in task    16
  | Maximal number of non-zero basis functions:      426 in task    17
  | Maximal number of non-zero basis functions:      438 in task    18
  | Maximal number of non-zero basis functions:      444 in task    19
  Allocating        0.000 MB for KS_eigenvector_complex
  Integrating Hamiltonian matrix: batch-based integration.
  Time summed over all CPUs for integration: real work       13.096 s, elapsed       13.258 s
  Integrating overlap matrix.
  Time summed over all CPUs for integration: real work        8.900 s, elapsed        9.054 s
  Decreasing sparse matrix size:
   Tolerance:  9.999999824516700E-014
   Hamiltonian matrix
  | Array has   661781 nonzero elements out of   743636 elements
  | Sparsity factor is 0.110
   Overlap matrix
  | Array has   619207 nonzero elements out of   743636 elements
  | Sparsity factor is 0.167
  New size of hamiltonian matrix:      661788

  Updating Kohn-Sham eigenvalues and eigenvectors using ELSI and the ELPA eigensolver.

  Obtaining occupation numbers and chemical potential using ELSI.
  | Chemical potential (Fermi level):    -7.47140247eV
  Writing Kohn-Sham eigenvalues.
  K-point:       1 at    0.000000    0.000000    0.000000 (in units of recip. lattice)

  State    Occupation    Eigenvalue [Ha]    Eigenvalue [eV]
      1       2.00000        -100.750798        -2741.56871
      2       2.00000        -100.730402        -2741.01370
      3       2.00000        -100.729346        -2740.98496
      4       2.00000        -100.723591        -2740.82837
      5       2.00000        -100.723558        -2740.82746
      6       2.00000        -100.723229        -2740.81851
      7       2.00000        -100.722022        -2740.78566
      8       2.00000        -100.720709        -2740.74994
      9       2.00000         -88.178435        -2399.45729
     10       2.00000         -88.177453        -2399.43058
     11       2.00000         -88.148887        -2398.65325
     12       2.00000         -88.144249        -2398.52706
     13       2.00000         -88.143031        -2398.49390
     14       2.00000         -88.135940        -2398.30096
     15       2.00000         -88.132900        -2398.21824
     16       2.00000         -88.132530        -2398.20815
     17       2.00000         -88.130969        -2398.16569
     18       2.00000         -88.130624        -2398.15629
     19       2.00000         -88.130524        -2398.15358
     20       2.00000         -88.129312        -2398.12061
     21       2.00000         -88.125537        -2398.01786
     22       2.00000         -88.124208        -2397.98171
     23       2.00000         -88.123252        -2397.95569
     24       2.00000         -88.122525        -2397.93591
     25       2.00000         -76.423078        -2079.57777
     26       2.00000         -76.396133        -2078.84454
     27       2.00000         -76.377604        -2078.34035
     28       2.00000         -76.377544        -2078.33872
     29       2.00000          -9.265838         -252.13627
     30       2.00000          -9.244318         -251.55070
     31       2.00000          -9.243361         -251.52464
     32       2.00000          -9.237232         -251.35786
     33       2.00000          -9.237029         -251.35234
     34       2.00000          -9.236784         -251.34567
     35       2.00000          -9.235529         -251.31154
     36       2.00000          -9.233973         -251.26920
     37       2.00000          -7.807873         -212.46304
     38       2.00000          -7.807121         -212.44258
     39       2.00000          -7.776680         -211.61422
     40       2.00000          -7.772591         -211.50296
     41       2.00000          -7.770751         -211.45288
     42       2.00000          -7.763493         -211.25539
     43       2.00000          -7.760111         -211.16336
     44       2.00000          -7.759954         -211.15910
     45       2.00000          -7.758258         -211.11293
     46       2.00000          -7.757639         -211.09610
     47       2.00000          -7.757546         -211.09356
     48       2.00000          -7.756247         -211.05823
     49       2.00000          -7.752310         -210.95109
     50       2.00000          -7.750969         -210.91461
     51       2.00000          -7.749654         -210.87881
     52       2.00000          -7.749052         -210.86242
     53       2.00000          -7.083554         -192.75330
     54       2.00000          -7.081814         -192.70597
     55       2.00000          -7.081559         -192.69904
     56       2.00000          -7.061512         -192.15351
     57       2.00000          -7.060810         -192.13441
     58       2.00000          -7.060586         -192.12832
     59       2.00000          -7.060163         -192.11681
     60       2.00000          -7.060046         -192.11361
     61       2.00000          -7.059806         -192.10710
     62       2.00000          -7.054245         -191.95578
     63       2.00000          -7.053978         -191.94850
     64       2.00000          -7.053953         -191.94783
     65       2.00000          -7.053806         -191.94383
     66       2.00000          -7.053772         -191.94290
     67       2.00000          -7.053552         -191.93691
     68       2.00000          -7.053552         -191.93691
     69       2.00000          -7.053498         -191.93544
     70       2.00000          -7.053106         -191.92477
     71       2.00000          -7.052530         -191.90910
     72       2.00000          -7.052163         -191.89912
     73       2.00000          -7.052024         -191.89535
     74       2.00000          -7.050929         -191.86554
     75       2.00000          -7.050685         -191.85891
     76       2.00000          -7.050521         -191.85445
     77       2.00000          -6.434511         -175.09196
     78       2.00000          -6.405312         -174.29740
     79       2.00000          -6.385438         -173.75661
     80       2.00000          -6.385353         -173.75429
     81       2.00000          -5.828626         -158.60499
     82       2.00000          -5.825306         -158.51464
     83       2.00000          -5.824714         -158.49853
     84       2.00000          -5.823636         -158.46921
     85       2.00000          -5.822906         -158.44935
     86       2.00000          -5.822602         -158.44106
     87       2.00000          -5.796125         -157.72059
     88       2.00000          -5.793271         -157.64293
     89       2.00000          -5.792857         -157.63166
     90       2.00000          -5.791051         -157.58251
     91       2.00000          -5.790003         -157.55401
     92       2.00000          -5.789225         -157.53283
     93       2.00000          -5.788778         -157.52066
     94       2.00000          -5.787915         -157.49718
     95       2.00000          -5.787252         -157.47915
     96       2.00000          -5.781761         -157.32972
     97       2.00000          -5.781100         -157.31173
     98       2.00000          -5.780002         -157.28187
     99       2.00000          -5.778751         -157.24783
    100       2.00000          -5.778751         -157.24781
    101       2.00000          -5.777495         -157.21364
    102       2.00000          -5.777029         -157.20096
    103       2.00000          -5.776912         -157.19777
    104       2.00000          -5.776747         -157.19327
    105       2.00000          -5.776604         -157.18939
    106       2.00000          -5.776591         -157.18904
    107       2.00000          -5.776043         -157.17412
    108       2.00000          -5.775293         -157.15372
    109       2.00000          -5.774941         -157.14415
    110       2.00000          -5.774896         -157.14292
    111       2.00000          -5.774853         -157.14175
    112       2.00000          -5.774750         -157.13895
    113       2.00000          -5.774223         -157.12461
    114       2.00000          -5.773875         -157.11514
    115       2.00000          -5.773487         -157.10456
    116       2.00000          -5.773083         -157.09358
    117       2.00000          -5.770805         -157.03158
    118       2.00000          -5.769967         -157.00878
    119       2.00000          -5.769743         -157.00271
    120       2.00000          -5.768823         -156.97765
    121       2.00000          -5.768408         -156.96637
    122       2.00000          -5.768390         -156.96587
    123       2.00000          -5.767727         -156.94784
    124       2.00000          -5.767442         -156.94008
    125       2.00000          -5.767092         -156.93055
    126       2.00000          -5.766261         -156.90795
    127       2.00000          -5.766231         -156.90714
    128       2.00000          -5.765906         -156.89828
    129       2.00000          -4.651039         -126.56122
    130       2.00000          -4.649045         -126.50696
    131       2.00000          -4.647985         -126.47812
    132       2.00000          -4.622054         -125.77249
    133       2.00000          -4.619726         -125.70914
    134       2.00000          -4.619448         -125.70157
    135       2.00000          -4.600933         -125.19775
    136       2.00000          -4.600803         -125.19422
    137       2.00000          -4.600717         -125.19187
    138       2.00000          -4.600571         -125.18790
    139       2.00000          -4.600458         -125.18482
    140       2.00000          -4.600434         -125.18417
    141       2.00000          -2.028011          -55.18499
    142       2.00000          -2.000360          -54.43256
    143       2.00000          -1.961408          -53.37262
    144       2.00000          -1.961055          -53.36303
    145       2.00000          -1.918481          -52.20453
    146       2.00000          -1.915736          -52.12983
    147       2.00000          -1.912766          -52.04902
    148       2.00000          -1.898153          -51.65137
    149       2.00000          -1.893338          -51.52035
    150       2.00000          -1.891365          -51.46666
    151       2.00000          -1.890851          -51.45267
    152       2.00000          -1.889806          -51.42424
    153       2.00000          -1.888820          -51.39741
    154       2.00000          -1.886691          -51.33947
    155       2.00000          -1.885702          -51.31255
    156       2.00000          -1.885587          -51.30943
    157       2.00000          -1.884454          -51.27860
    158       2.00000          -1.884406          -51.27730
    159       2.00000          -1.884363          -51.27613
    160       2.00000          -1.884271          -51.27362
    161       2.00000          -0.874008          -23.78297
    162       2.00000          -0.834672          -22.71259
    163       2.00000          -0.825832          -22.47203
    164       2.00000          -0.802470          -21.83632
    165       2.00000          -0.800134          -21.77275
    166       2.00000          -0.798194          -21.71995
    167       2.00000          -0.797253          -21.69437
    168       2.00000          -0.794021          -21.60641
    169       2.00000          -0.787860          -21.43877
    170       2.00000          -0.786463          -21.40075
    171       2.00000          -0.785221          -21.36695
    172       2.00000          -0.784379          -21.34405
    173       2.00000          -0.779657          -21.21555
    174       2.00000          -0.754694          -20.53627
    175       2.00000          -0.737429          -20.06646
    176       2.00000          -0.725219          -19.73420
    177       2.00000          -0.723549          -19.68877
    178       2.00000          -0.719098          -19.56766
    179       2.00000          -0.716491          -19.49672
    180       2.00000          -0.714219          -19.43490
    181       2.00000          -0.705464          -19.19666
    182       2.00000          -0.703353          -19.13921
    183       2.00000          -0.700533          -19.06247
    184       2.00000          -0.695450          -18.92415
    185       2.00000          -0.587063          -15.97479
    186       2.00000          -0.556992          -15.15653
    187       2.00000          -0.540296          -14.70220
    188       2.00000          -0.531715          -14.46871
    189       2.00000          -0.485517          -13.21158
    190       2.00000          -0.477199          -12.98523
    191       2.00000          -0.468031          -12.73577
    192       2.00000          -0.452220          -12.30552
    193       2.00000          -0.447763          -12.18425
    194       2.00000          -0.443252          -12.06151
    195       2.00000          -0.433414          -11.79379
    196       2.00000          -0.431013          -11.72845
    197       2.00000          -0.427985          -11.64607
    198       2.00000          -0.426053          -11.59350
    199       2.00000          -0.421188          -11.46110
    200       2.00000          -0.416545          -11.33476
    201       2.00000          -0.415193          -11.29798
    202       2.00000          -0.413385          -11.24877
    203       2.00000          -0.404507          -11.00718
    204       2.00000          -0.401883          -10.93581
    205       2.00000          -0.394346          -10.73070
    206       2.00000          -0.390471          -10.62526
    207       2.00000          -0.388441          -10.57001
    208       2.00000          -0.386669          -10.52180
    209       2.00000          -0.385463          -10.48898
    210       2.00000          -0.382775          -10.41585
    211       2.00000          -0.378130          -10.28944
    212       2.00000          -0.376741          -10.25165
    213       2.00000          -0.376392          -10.24216
    214       2.00000          -0.375416          -10.21559
    215       2.00000          -0.373821          -10.17218
    216       2.00000          -0.372780          -10.14386
    217       2.00000          -0.369425          -10.05257
    218       2.00000          -0.367450           -9.99883
    219       2.00000          -0.364566           -9.92034
    220       2.00000          -0.363528           -9.89210
    221       2.00000          -0.363245           -9.88440
    222       2.00000          -0.360734           -9.81607
    223       2.00000          -0.360043           -9.79726
    224       2.00000          -0.357574           -9.73009
    225       2.00000          -0.356061           -9.68891
    226       2.00000          -0.355341           -9.66931
    227       2.00000          -0.352850           -9.60152
    228       2.00000          -0.350956           -9.54999
    229       2.00000          -0.349265           -9.50400
    230       2.00000          -0.348526           -9.48388
    231       2.00000          -0.345177           -9.39275
    232       2.00000          -0.344836           -9.38345
    233       2.00000          -0.344236           -9.36713
    234       2.00000          -0.341588           -9.29509
    235       2.00000          -0.340837           -9.27465
    236       2.00000          -0.336610           -9.15963
    237       2.00000          -0.334978           -9.11521
    238       2.00000          -0.330899           -9.00421
    239       2.00000          -0.329269           -8.95987
    240       2.00000          -0.326600           -8.88723
    241       2.00000          -0.322201           -8.76754
    242       2.00000          -0.320524           -8.72190
    243       2.00000          -0.318031           -8.65408
    244       2.00000          -0.316214           -8.60461
    245       2.00000          -0.315883           -8.59561
    246       2.00000          -0.310936           -8.46099
    247       2.00000          -0.307988           -8.38078
    248       2.00000          -0.302856           -8.24113
    249       2.00000          -0.300473           -8.17629
    250       2.00000          -0.297122           -8.08510
    251       2.00000          -0.295251           -8.03420
    252       2.00000          -0.293623           -7.98988
    253       2.00000          -0.288690           -7.85566
    254       2.00000          -0.285161           -7.75962
    255       2.00000          -0.282022           -7.67422
    256       2.00000          -0.276215           -7.51619
    257       0.00000          -0.207160           -5.63711
    258       0.00000          -0.173202           -4.71307
    259       0.00000          -0.163335           -4.44457
    260       0.00000          -0.142337           -3.87320
    261       0.00000          -0.135678           -3.69200
    262       0.00000          -0.127297           -3.46394
    263       0.00000          -0.126019           -3.42915
    264       0.00000          -0.119996           -3.26524
    265       0.00000          -0.118188           -3.21607
    266       0.00000          -0.114599           -3.11839
    267       0.00000          -0.108529           -2.95323
    268       0.00000          -0.099107           -2.69683
    269       0.00000          -0.098375           -2.67691
    270       0.00000          -0.088893           -2.41890
    271       0.00000          -0.086476           -2.35312
    272       0.00000          -0.078365           -2.13242
    273       0.00000          -0.076213           -2.07385
    274       0.00000          -0.073862           -2.00989
    275       0.00000          -0.070172           -1.90948
    276       0.00000          -0.068701           -1.86944
    277       0.00000          -0.067615           -1.83989
    278       0.00000          -0.059790           -1.62696
    279       0.00000          -0.056335           -1.53294
    280       0.00000          -0.055477           -1.50962
    281       0.00000          -0.053704           -1.46137
    282       0.00000          -0.050862           -1.38404
    283       0.00000          -0.046619           -1.26858
    284       0.00000          -0.044174           -1.20203
    285       0.00000          -0.039865           -1.08478
    286       0.00000          -0.037406           -1.01786
    287       0.00000          -0.034715           -0.94465
    288       0.00000          -0.027627           -0.75176
[...]
    306       0.00000           0.030985            0.84314
    307       0.00000           0.032857            0.89407
    308       0.00000           0.037835            1.02955
    309       0.00000           0.040177            1.09328
    310       0.00000           0.045387            1.23503
    311       0.00000           0.045855            1.24777
    312       0.00000           0.047789            1.30042
    313       0.00000           0.050072            1.36253
    314       0.00000           0.051267            1.39506
    315       0.00000           0.052229            1.42121
    316       0.00000           0.054707            1.48865
    317       0.00000           0.057249            1.55783
    318       0.00000           0.058683            1.59685
    319       0.00000           0.060889            1.65688
    320       0.00000           0.063155            1.71855
    321       0.00000           0.067684            1.84178
    322       0.00000           0.070371            1.91490
    323       0.00000           0.070923            1.92993
    324       0.00000           0.072318            1.96786
    325       0.00000           0.075240            2.04740
    326       0.00000           0.078041            2.12361
    327       0.00000           0.080866            2.20047
    328       0.00000           0.082015            2.23175
    329       0.00000           0.084642            2.30322
    330       0.00000           0.087771            2.38838
    331       0.00000           0.092447            2.51562
    332       0.00000           0.093575            2.54629
    333       0.00000           0.093870            2.55434
    334       0.00000           0.095395            2.59584
    335       0.00000           0.101908            2.77307
    336       0.00000           0.103428            2.81442
    337       0.00000           0.105439            2.86913
    338       0.00000           0.107359            2.92138
    339       0.00000           0.109635            2.98332
    340       0.00000           0.112944            3.07337
    341       0.00000           0.113577            3.09058
    342       0.00000           0.115490            3.14265
    343       0.00000           0.120899            3.28982
    344       0.00000           0.125180            3.40632
    345       0.00000           0.127543            3.47063
    346       0.00000           0.130995            3.56457
    347       0.00000           0.133071            3.62104
    348       0.00000           0.134814            3.66847
    349       0.00000           0.135615            3.69027
    350       0.00000           0.139810            3.80443
    351       0.00000           0.142279            3.87160
    352       0.00000           0.148166            4.03179
    353       0.00000           0.148724            4.04698
    354       0.00000           0.151004            4.10904
    355       0.00000           0.155502            4.23141
    356       0.00000           0.157189            4.27733
    357       0.00000           0.158208            4.30505
    358       0.00000           0.162194            4.41353
    359       0.00000           0.167727            4.56407
    360       0.00000           0.169892            4.62300
    361       0.00000           0.172870            4.70403
    362       0.00000           0.176465            4.80185
    363       0.00000           0.178966            4.86991
    364       0.00000           0.179890            4.89504
    365       0.00000           0.185674            5.05245
    366       0.00000           0.192508            5.23842
    367       0.00000           0.196669            5.35164
    368       0.00000           0.198223            5.39393
    369       0.00000           0.201785            5.49084
    370       0.00000           0.203680            5.54242

  What follows are estimated values for band gap, HOMO, LUMO, etc.
  | They are estimated on a discrete k-point grid and not necessarily exact.
  | For converged numbers, create a DOS and/or band structure plot on a denser k-grid.

  Highest occupied state (VBM) at     -6.10849427 eV (relative to internal zero)
  | Occupation number:      2.00000000
  | K-point:       1 at    0.000000    0.000000    0.000000 (in units of recip. lattice)

  Lowest unoccupied state (CBM) at    -5.61794270 eV (relative to internal zero)
  | Occupation number:      0.00000000
  | K-point:       1 at    0.000000    0.000000    0.000000 (in units of recip. lattice)

  ESTIMATED overall HOMO-LUMO gap:      0.49055157 eV between HOMO at k-point 1 and LUMO at k-point 1
  | This appears to be a direct band gap.
  The gap value is above 0.2 eV. Unless you are using a very sparse k-point grid,
  this system is most likely an insulator or a semiconductor.

  Self-consistency cycle converged.

  End self-consistency iteration #    22       :  max(cpu_time)    wall_clock(cpu1)
  | Time for this iteration                    :       14.366 s          14.369 s
  | Charge density & force component update    :        9.471 s           9.471 s
  | Density mixing                             :        0.007 s           0.007 s
  | Hartree multipole update                   :        0.005 s           0.004 s
  | Hartree multipole summation                :        3.819 s           3.819 s
  | Integration                                :        0.679 s           0.679 s
  | Solution of K.-S. eqns.                    :        0.382 s           0.382 s
  | Total energy evaluation                    :        0.002 s           0.003 s

  Partial memory accounting:
  | Current value for overall tracked memory usage on task 0  :          13.237 MB
  | Peak value for overall tracked memory usage on task 0     :          26.413 MB after allocating wave_pulay
  | Largest tracked array allocation on task 0 so far         :           8.387 MB  when allocating kdm_complex
  Note:  These values currently only include a subset of arrays which are explicitly tracked.
  The "true" memory usage will be greater.
------------------------------------------------------------
  |------------------------------------------
  | Final ELSI Output
  |------------------------------------------
  | Number of basis functions :          724
  | Number of electrons       :        512.0
  | Number of states          :          370
  | Solver                    :         ELPA
  | Parallel mode             :  SINGLE_PROC
  | Matrix format             :  BLACS_DENSE
  |------------------------------------------
  | ELSI Project (c)  elsi-interchange.org
  |------------------------------------------
  Removing unitary transformations (pure translations, rotations) from forces on atoms.
  Atomic forces before filtering:
  | Net force on center of mass :   0.110180E-01 -0.612619E-02 -0.607300E-02 eV/A
  Atomic forces after filtering:
  | Net force on center of mass :  -0.131575E-14 -0.168928E-14  0.780527E-16 eV/A

  Energy and forces in a compact form:
  | Total energy uncorrected      :         -0.314728171643450E+06 eV
  | Total energy corrected        :         -0.314728171643450E+06 eV  <-- do not rely on this value for anything but (periodic) metals
  | Electronic free energy        :         -0.314728171643450E+06 eV
  Total atomic forces (unitary forces cleaned) [eV/Ang]:
  |   1          0.226514386312287E+00          0.625871976014939E+00         -0.591379873955698E-01
  |   2          0.356210752967023E-01         -0.666572179126255E+00          0.716428002165320E+00
  |   3         -0.202031880912196E+00          0.225919384199929E+00         -0.515189968589991E+00
  |   4         -0.342740709725861E+00         -0.282793695820411E+00          0.566368905583322E-01
  |   5         -0.679712683979725E+00         -0.272473675043705E+01          0.483501717327185E+00
  |   6         -0.254215037348547E+00         -0.314270045553101E-01          0.132498055162708E-01
  |   7          0.654556223854728E+00          0.368932801906416E+00          0.285498202626736E+00
  |   8         -0.362191117206907E+01         -0.734507904191856E+00         -0.423477567990680E+01
  |   9          0.226252620197423E+00          0.107440193668358E+01          0.584850990375495E+00
  |  10          0.767305934238109E+00         -0.571206919081960E+00         -0.352836600407096E+00
  |  11          0.351970776691811E+01         -0.640503707761499E+00          0.246837044811549E+01
  |  12         -0.104167234684156E+01          0.517327985844287E-01         -0.370252251072168E+00
  |  13          0.713242073904206E+00          0.103988653608483E+01         -0.103279971214484E+00
  |  14         -0.212083444309442E+00         -0.913833305553442E-01          0.515872919005720E+00
  |  15          0.883654417545231E+00         -0.177429842435434E+01         -0.151970826293861E+01
  |  16         -0.296663763017724E+00          0.130108476508129E+01          0.267680726593523E+01
  |  17          0.520074327590979E+01         -0.271109576134976E+01          0.185584439417591E+01
  |  18         -0.143708984561728E+01          0.164029692272087E+01         -0.543429231143254E+01
  |  19          0.166101495524634E+00          0.102370097679006E+00         -0.488324754447847E+00
  |  20          0.268914953218827E+01          0.871219809156051E+01          0.152781260464964E+01
  |  21         -0.198617456592015E+01          0.337485891346297E+01          0.387774933416330E+01
  |  22          0.310799876703775E-01         -0.447003909020442E+00         -0.228857898382635E+01
  |  23          0.472750807557498E-01         -0.108692366896139E+01          0.191059182074142E+00
  |  24         -0.390898877241749E-01         -0.867471125144408E+01          0.483982997566413E+00
  |  25         -0.112056468525987E+00         -0.377147671027335E+00         -0.219719051666365E+00
  |  26         -0.325605035042394E-01         -0.483489362230305E+00         -0.762267762199213E+00
  |  27         -0.220592041569442E+00         -0.944850035179087E+00         -0.707111504614515E+00
  |  28          0.468519998460216E+00         -0.104891593172752E+01         -0.188439625993348E+00
  |  29          0.227164762046838E+00         -0.695804528025551E-01          0.395574200620217E+00
  |  30         -0.398402295926272E+00         -0.822671595902220E+00          0.681928528078235E+00
  |  31          0.378137719709936E+00          0.161205127614888E-01          0.692505800501006E+00
  |  32         -0.257205115402576E+00          0.950922038916610E+00          0.588758792751104E+00
  |  33         -0.122165540102365E+00          0.714623828921680E+00          0.106216678838051E+00
  |  34         -0.201206059955106E+01          0.181594324639038E+01          0.296956304852876E+01
  |  35         -0.202417531817717E+00         -0.305759482863186E-01         -0.424282558075869E+00
  |  36          0.276690170933699E+00          0.581865058955865E+00         -0.154774237408345E+00
  |  37         -0.173070866956458E+01          0.302886677392724E+01         -0.395220978529781E+01
  |  38          0.947365047036172E-01         -0.823386134957803E+00         -0.908059004581811E+00
  |  39         -0.743503431251650E+00          0.194025871260523E+01          0.678608104767878E+00
  |  40         -0.615229078792137E+00         -0.174354468675881E+01          0.146886883304995E+01
  |  41         -0.520484132681712E+00         -0.972934385193127E-01          0.890342912228861E-01
  |  42          0.934345324129862E-01         -0.227887979275709E+00         -0.691747354401616E+00
  |  43          0.638267810774000E-01         -0.692711462699672E+00         -0.365113864440906E+00
  |  44          0.660414703097891E+00          0.137012966475622E+00         -0.308049245059463E+00
  |  45         -0.140826021806159E+00         -0.231597649957310E+00          0.620608893058636E+00
  |  46         -0.319369894925611E+00          0.654880302882048E+00          0.204519757383385E+00
  |  47          0.782529962043289E-01         -0.291104625325903E+00         -0.120625685830715E+00
  |  48          0.385846239247028E-01         -0.361261845053749E-01         -0.650752322538589E-01

  ------------------------------------ 
  Start decomposition of the XC Energy 
  ------------------------------------ 
  X and C from original XC functional choice 
  Hartree-Fock Energy :          0.000000000 Ha              0.000000000 eV
  X Energy            :       -745.442771746 Ha         -20284.529884737 eV
  C Energy            :        -19.345863488 Ha           -526.427729866 eV
  Total XC Energy     :       -764.788635235 Ha         -20810.957614603 eV
  ------------------------------------ 
  LDA X and C from self-consistent density 
  X Energy LDA        :       -690.086231528 Ha         -18778.201784255 eV
  C Energy LDA        :        -38.825601587 Ha          -1056.498373236 eV
  ------------------------------------ 
  End decomposition of the XC Energy 
  ------------------------------------ 

------------------------------------------------------------

------------------------------------------------------------------------------
  Final output of selected total energy values:

  The following output summarizes some interesting total energy values
  at the end of a run (AFTER all relaxation, molecular dynamics, etc.).

  | Total energy of the DFT / Hartree-Fock s.c.f. calculation      :        -314728.171643450 eV
  | Final zero-broadening corrected energy (caution - metals only) :        -314728.171643450 eV
  | For reference only, the value of 1 Hartree used in FHI-aims is :             27.211384500 eV

  Before relying on these values, please be sure to understand exactly which
  total energy value is referred to by a given number. Different objects may
  all carry the same name 'total energy'. Definitions:

  Total energy of the DFT / Hartree-Fock s.c.f. calculation:
  | Note that this energy does not include ANY quantities calculated after the
  | s.c.f. cycle, in particular not ANY RPA, MP2, etc. many-body perturbation terms.

  Final zero-broadening corrected energy:
  | For metallic systems only, a broadening of the occupation numbers at the Fermi
  | level can be extrapolated back to zero broadening by an electron-gas inspired
  | formula. For all systems that are not real metals, this value can be
  | meaningless and should be avoided.

------------------------------------------------------------------------------
  Methods described in the following list of references were used in this FHI-aims run.
  If you publish the results, please make sure to cite these reference if they apply.
  FHI-aims is an academic code, and for our developers (often, Ph.D. students
  and postdocs), scientific credit in the community is essential.
  Thank you for helping us!

  For any use of FHI-aims, please cite:

    Volker Blum, Ralf Gehrke, Felix Hanke, Paula Havu, Ville Havu,
    Xinguo Ren, Karsten Reuter, and Matthias Scheffler
    'Ab initio molecular simulations with numeric atom-centered orbitals'
    Computer Physics Communications 180, 2175-2196 (2009)
    http://dx.doi.org/10.1016/j.cpc.2009.06.022


  The provided symmetry information was generated with SPGlib:

    Atsushi Togo, Yusuke Seto, Dimitar Pashov
    SPGlib 1.7.3 obtained from http://spglib.sourceforge.net
    Copyright (C) 2008 Atsushi Togo


  The scalable eigensolver library ELPA was used in your run.
  ELPA is essential especially for large systems on hundreds or thousands of CPUs.
  For ELPA, please cite:

    Andreas Marek, Volker Blum, Rainer Johanni, Ville Havu, Bruno Lang,
    Thomas Auckenthaler, Alexander Heinecke, Hans-Joachim Bungartz, and Hermann Lederer,
    'The ELPA Library - Scalable Parallel Eigenvalue Solutions
    for Electronic Structure Theory and Computational Science'
    The Journal of Physics: Condensed Matter 26, 213201 (2014).
    http://dx.doi.org/10.1088/0953-8984/26/21/213201


  The ELSI infrastructure was used in your run to solve the Kohn-Sham electronic structure.
  Please check out http://elsi-interchange.org to learn more.
  If scalability is important for your project, please acknowledge ELSI by citing:

    V. W-z. Yu, F. Corsetti, A. Garcia, W. P. Huhn, M. Jacquelin, W. Jia,
    B. Lange, L. Lin, J. Lu, W. Mi, A. Seifitokaldani, A. Vazquez-Mayagoitia,
    C. Yang, H. Yang, and V. Blum
    'ELSI: A unified software interface for Kohn-Sham electronic structure solvers'
    Computer Physics Communications 222, 267-285 (2018).
    http://dx.doi.org/10.1016/j.cpc.2017.09.007


  For the real-space grid partitioning and parallelization used in this calculation, please cite:

    Ville Havu, Volker Blum, Paula Havu, and Matthias Scheffler,
    'Efficient O(N) integration for all-electron electronic structure calculation'
    'using numerically tabulated basis functions'
    Journal of Computational Physics 228, 8367-8379 (2009).
    http://dx.doi.org/10.1016/j.jcp.2009.08.008

  Of course, there are many other important community references, e.g., those cited in the
  above references. Our list is limited to references that describe implementations in the
  FHI-aims code. The reason is purely practical (length of this list) - please credit others as well.

 * A warning was issued further up regarding the CPU load.
   Some CPUs do not participate in the eigenvalue solution.
   In corner cases, this may be the correct behavior. Otherwise,
   consider using a scalapack/elpa version of the code for a parallel treatment.

------------------------------------------------------------
          Leaving FHI-aims.
          Date     :  20220723, Time     :  170105.885

          Computational steps:
          | Number of self-consistency cycles          :           22
          | Number of SCF (re)initializations          :            1

          Detailed time accounting                     :  max(cpu_time)    wall_clock(cpu1)
          | Total time                                 :      113.765 s         113.790 s
          | Preparation time                           :        0.412 s           0.414 s
          | Boundary condition initalization           :        0.247 s           0.247 s
          | Grid partitioning                          :        0.243 s           0.243 s
          | Preloading free-atom quantities on grid    :        0.009 s           0.010 s
          | Free-atom superposition energy             :        0.130 s           0.130 s
          | Total time for integrations                :       15.868 s          15.870 s
          | Total time for solution of K.-S. equations :        8.733 s           8.736 s
          | Total time for density & force components  :       32.236 s          32.225 s
          | Total time for mixing & preconditioning    :       20.315 s          20.321 s
          | Total time for Hartree multipole update    :        0.103 s           0.105 s
          | Total time for Hartree multipole sum       :       34.689 s          34.692 s
          | Total time for total energy evaluation     :        0.008 s           0.015 s

          Partial memory accounting:
          | Residual value for overall tracked memory usage across tasks :           0.000 MB (should be 0.000 MB)
          | Peak values for overall tracked memory usage (after allocating wave_pulay):
          |   Minimum:       26.073 MB (on task 17)
          |   Maximum:       51.088 MB (on task  2)
          |   Average:       43.704 MB
          | Largest tracked array allocation (kdm_complex):
          |   Minimum:        8.387 MB (on task  1)
          |   Maximum:        8.387 MB (on task  1)
          |   Average:        8.387 MB
          Note:  These values currently only include a subset of arrays which are explicitly tracked.
          The "true" memory usage will be greater.

          Have a nice day.
------------------------------------------------------------
