  MPI-parallelism will be employed.
------------------------------------------------------------
          Invoking FHI-aims ...
          Version 171221_1
          Compiled on 2020/09/23 at 19:46:43 on host login.service.

          When using FHI-aims, please cite the following reference:

          Volker Blum, Ralf Gehrke, Felix Hanke, Paula Havu,
          Ville Havu, Xinguo Ren, Karsten Reuter, and Matthias Scheffler,
          'Ab Initio Molecular Simulations with Numeric Atom-Centered Orbitals',
          Computer Physics Communications 180, 2175-2196 (2009)

          For any questions about FHI-aims, please visit the aimsclub website
          with its forums and wiki. Contributions to both the forums and the
          wiki are warmly encouraged - they are for you, and everyone is welcome there.

------------------------------------------------------------



  Date     :  20220721, Time     :  125105.759
  Time zero on CPU 1             :   0.861870000000000E-01  s.
  Internal wall clock time zero  :           427639865.759  s.

  FHI-aims created a unique identifier for this run for later identification
  aims_uuid : 57828CD8-9CBD-4A15-A951-1B6F392C75A1

  Using       20 parallel tasks.
  Task        0 on host node062 reporting.
  Task        1 on host node062 reporting.
  Task        2 on host node062 reporting.
  Task        3 on host node062 reporting.
  Task        4 on host node062 reporting.
  Task        5 on host node062 reporting.
  Task        6 on host node062 reporting.
  Task        7 on host node062 reporting.
  Task        8 on host node062 reporting.
  Task        9 on host node062 reporting.
  Task       10 on host node062 reporting.
  Task       11 on host node062 reporting.
  Task       12 on host node062 reporting.
  Task       13 on host node062 reporting.
  Task       14 on host node062 reporting.
  Task       15 on host node062 reporting.
  Task       16 on host node062 reporting.
  Task       17 on host node062 reporting.
  Task       18 on host node062 reporting.
  Task       19 on host node062 reporting.

  Performing system and environment tests:
  *** Environment variable OMP_NUM_THREADS is not set
  *** For performance reasons you might want to set it to 1
  | Maximum stacksize for task 0: unlimited
  | Maximum stacksize for task 1: unlimited
  | Maximum stacksize for task 2: unlimited
  | Maximum stacksize for task 3: unlimited
  | Maximum stacksize for task 4: unlimited
  | Maximum stacksize for task 5: unlimited
  | Maximum stacksize for task 6: unlimited
  | Maximum stacksize for task 7: unlimited
  | Maximum stacksize for task 8: unlimited
  | Maximum stacksize for task 9: unlimited
  | Maximum stacksize for task 10: unlimited
  | Maximum stacksize for task 11: unlimited
  | Maximum stacksize for task 12: unlimited
  | Maximum stacksize for task 13: unlimited
  | Maximum stacksize for task 14: unlimited
  | Maximum stacksize for task 15: unlimited
  | Maximum stacksize for task 16: unlimited
  | Maximum stacksize for task 17: unlimited
  | Maximum stacksize for task 18: unlimited
  | Maximum stacksize for task 19: unlimited
  | Current stacksize for task 0: unlimited
  | Current stacksize for task 1: unlimited
  | Current stacksize for task 2: unlimited
  | Current stacksize for task 3: unlimited
  | Current stacksize for task 4: unlimited
  | Current stacksize for task 5: unlimited
  | Current stacksize for task 6: unlimited
  | Current stacksize for task 7: unlimited
  | Current stacksize for task 8: unlimited
  | Current stacksize for task 9: unlimited
  | Current stacksize for task 10: unlimited
  | Current stacksize for task 11: unlimited
  | Current stacksize for task 12: unlimited
  | Current stacksize for task 13: unlimited
  | Current stacksize for task 14: unlimited
  | Current stacksize for task 15: unlimited
  | Current stacksize for task 16: unlimited
  | Current stacksize for task 17: unlimited
  | Current stacksize for task 18: unlimited
  | Current stacksize for task 19: unlimited
  | Checking for scalapack...
  | Testing pdtran()...
  | All pdtran() tests passed.

  Obtaining array dimensions for all initial allocations:
  
  -----------------------------------------------------------------------
  Parsing control.in (first pass over file, find array dimensions only).
  The contents of control.in will be repeated verbatim below
  unless switched off by setting 'verbatim_writeout .false.' .
  in the first line of control.in .
  -----------------------------------------------------------------------
  
  #===============================================================================
  # FHI-aims file: ./control.in
  # Created using the Atomic Simulation Environment (ASE)
  # Wed Mar 24 12:41:28 2021
  #===============================================================================
  xc                                 pbe
  sc_accuracy_etot                   1e-06
  sc_accuracy_eev                    0.001
  sc_accuracy_rho                    1e-06
  sc_accuracy_forces                 0.0001
  friction_temperature               300  # default 300
  
    k_grid                           6 6 6
  
  
  
  ################################################################################
  #
  #  FHI-aims code project
  #  VB, Fritz-Haber Institut, 2009
  #
  #  Suggested "light" defaults for Li atom (to be pasted into control.in file)
  #  Be sure to double-check any results obtained with these settings for post-processing,
  #  e.g., with the "tight" defaults and larger basis sets.
  #
  ################################################################################
    species        Li
  #     global species definitions
      nucleus             3
      mass                6.941
  #
      l_hartree           4
  #
      cut_pot             3.5  1.5  1.0
      basis_dep_cutoff    1e-4
  #
      radial_base         29 5.0
      radial_multiplier   1
      angular_grids       specified
        division   0.4484  110
        division   0.5659  194
        division   0.6315  302
  #      division   0.6662  434
  #      division   0.8186  590
  #      division   0.9037  770
  #      division   6.2760  974
  #      outer_grid   974
        outer_grid   302
  ################################################################################
  #
  #  Definition of "minimal" basis
  #
  ################################################################################
  #     valence basis states
      valence      2  s   1.
  #     ion occupancy
      ion_occ      1  s   2.
  ################################################################################
  #
  #  Suggested additional basis functions. For production calculations,
  #  uncomment them one after another (the most important basis functions are
  #  listed first).
  #
  #  Constructed for dimers: 1.80 A, 2.25 A, 2.75 A, 3.50 A, 4.50 A
  #
  ################################################################################
  #  "First tier" - improvements: -189.23 meV to -6.35 meV
       hydro 2 p 1.6
       hydro 2 s 2
       hydro 3 d 2.6
  #  "Second tier" - improvements: -4.69 meV to -0.41 meV
  #     hydro 3 p 4.6
  #     hydro 2 p 1.8
  #     hydro 3 s 6.2
  #     hydro 4 d 4.7
  #     hydro 4 f 4.1
  #  "Third tier" - improvements: -0.20 meV to -0.15 meV
  #     hydro 4 d 0.95
  #     hydro 3 p 6.2
  #     hydro 3 s 1.7
  #  Further functions, listed for completeness
  #     VB: The following functions are only listed for completeness; test very
  #         carefully before any kind of production use. From the point of view
  #         of the basis construction, their main role is to fill up space,
  #         and they are solely determined by the location of the cutoff potential.
  #     hydro 3 p 0.1  # -0.15 meV
  #     hydro 4 d 5    # -0.12 meV
  #     hydro 4 f 0.1  # -0.14 meV
  #     hydro 5 g 0.1  # -0.06 meV
  
  
  ################################################################################
  #
  #  FHI-aims code project
  #  VB, Fritz-Haber Institut, 2010
  #
  #  Suggested "light" defaults for P atom (to be pasted into control.in file)
  #  Be sure to double-check any results obtained with these settings for post-processing,
  #  e.g., with the "tight" defaults and larger basis sets.
  #
  ################################################################################
    species        P
  #     global species definitions
      nucleus             15
      mass                30.973762
  #
      l_hartree           4
  #
      cut_pot             3.5          1.5  1.0
      basis_dep_cutoff    1e-4
  #
      radial_base         43 5.0
      radial_multiplier   1
      angular_grids       specified
        division   0.5527   50
        division   0.8801  110
        division   1.1447  194
        division   1.3165  302
  #      division   1.4113  434
  #      division   1.4781  590
  #      division   1.5482  770
  #      division   1.5845  974
  #      division   2.2606 1202
        outer_grid  302
  ################################################################################
  #
  #  Definition of "minimal" basis
  #
  ################################################################################
  #     valence basis states
      valence      3  s   2.
      valence      3  p   3.
  #     ion occupancy
      ion_occ      3  s   1.
      ion_occ      3  p   2.
  ################################################################################
  #
  #  Suggested additional basis functions. For production calculations,
  #  uncomment them one after another (the most important basis functions are
  #  listed first).
  #
  #  Constructed for dimers: 1.625 A, 1.875 A, 2.5 A, 3.25 A, 4.0 A
  #
  ################################################################################
  #  "First tier" - improvements: -726.20 meV to -35.91 meV
       ionic 3 d auto
       ionic 3 p auto
  #     hydro 4 f 6.2
  #     hydro 5 g 8.6
       ionic 3 s auto
  #  "Second tier" - improvements: -16.02 meV to -1.71 meV
  #     hydro 4 d 6.2
  #     hydro 4 p 9.2
  #     hydro 5 f 9.8
  #     hydro 1 s 0.7
  #     hydro 5 g 13.2
  #  "Third tier" - improvements: -1.82 meV to -0.20 meV
  #     hydro 3 p 2.5
  #     hydro 4 d 6.4
  #     hydro 5 f 11.2
  #     hydro 2 s 1.5
  #  "Fourth tier" - improvements: -0.91 meV to -0.17 meV
  #     hydro 3 d 16.8
  #     hydro 5 g 18
  #     hydro 4 p 4.5
  #     hydro 3 s 2.1
  #  Further basis functions that fell out of the optimization - < -0.09 meV
  #     hydro 4 p 10.4
  #     hydro 4 d 17.6
  #     hydro 4 s 11.2
  ################################################################################
  #
  #  FHI-aims code project
  #  VB, Fritz-Haber Institut, 2009
  #
  #  Suggested "light" defaults for S atom (to be pasted into control.in file)
  #  Be sure to double-check any results obtained with these settings for post-processing,
  #  e.g., with the "tight" defaults and larger basis sets.
  #
  ################################################################################
    species        S
  #     global species definitions
      nucleus             16
      mass                32.065
  #
      l_hartree           4
  #
      cut_pot             3.5          1.5  1.0
      basis_dep_cutoff    1e-4
  #
      radial_base         44 5.0
      radial_multiplier   1
      angular_grids       specified
        division   0.4665  110
        division   0.5810  194
        division   0.7139  302
  #      division   0.8274  434
  #      division   0.9105  590
  #      division   1.0975  770
  #      division   1.2028  974
  #      outer_grid  974
        outer_grid  302
  ################################################################################
  #
  #  Definition of "minimal" basis
  #
  ################################################################################
  #     valence basis states
      valence      3  s   2.
      valence      3  p   4.
  #     ion occupancy
      ion_occ      3  s   1.
      ion_occ      3  p   3.
  ################################################################################
  #
  #  Suggested additional basis functions. For production calculations,
  #  uncomment them one after another (the most important basis functions are
  #  listed first).
  #
  #  Constructed for dimers: 1.6 A, 1.9 A, 2.5 A, 3.25 A, 4.0 A
  #
  ################################################################################
  #  "First tier" - improvements: -652.81 meV to -45.53 meV
       ionic 3 d auto
       hydro 2 p 1.8
  #     hydro 4 f 7
       ionic 3 s auto
  #  "Second tier" - improvements: -30.20 meV to -1.74 meV
  #     hydro 4 d 6.2
  #     hydro 5 g 10.8
  #     hydro 4 p 4.9
  #     hydro 5 f 10
  #     hydro 1 s 0.8
  #  "Third tier" - improvements: -1.04 meV to -0.20 meV
  #     hydro 3 d 3.9
  #     hydro 3 d 2.7
  #     hydro 5 g 12
  #     hydro 4 p 10.4
  #     hydro 5 f 12.4
  #     hydro 2 s 1.9
  #  "Fourth tier" - improvements: -0.35 meV to -0.06 meV
  #     hydro 4 d 10.4
  #     hydro 4 p 7.2
  #     hydro 4 d 10
  #     hydro 5 g 19.2
  #     hydro 4 s 12
  
  ################################################################################
  #
  #  FHI-aims code project
  #  VB, Fritz-Haber Institut, 2009
  #
  #  Suggested "light" defaults for Cl atom (to be pasted into control.in file)
  #  Be sure to double-check any results obtained with these settings for post-processing,
  #  e.g., with the "tight" defaults and larger basis sets.
  #
  ################################################################################
    species        Cl
  #     global species definitions
      nucleus             17
      mass                35.453
  #
      l_hartree           4
  #
      cut_pot             3.5          1.5  1.0
      basis_dep_cutoff    1e-4
  #
      radial_base         45 5.0
      radial_multiplier   1
      angular_grids       specified
        division   0.4412  110
        division   0.5489  194
        division   0.6734  302
  #      division   0.7794  434
  #      division   0.9402  590
  #      division   1.0779  770
  #      division   1.1792  974
  #      outer_grid  974
        outer_grid  302
  ################################################################################
  #
  #  Definition of "minimal" basis
  #
  ################################################################################
  #     valence basis states
      valence      3  s   2.
      valence      3  p   5.
  #     ion occupancy
      ion_occ      3  s   1.
      ion_occ      3  p   4.
  ################################################################################
  #
  #  Suggested additional basis functions. For production calculations,
  #  uncomment them one after another (the most important basis functions are
  #  listed first).
  #
  #  Constructed for dimers: 1.65 A, 2.0 A, 2.5 A, 3.25 A, 4.0 A
  #
  ################################################################################
  #  "First tier" - improvements: -429.57 meV to -15.03 meV
       ionic 3 d auto
       hydro 2 p 1.9
  #     hydro 4 f 7.4
       ionic 3 s auto
  #     hydro 5 g 10.4
  #  "Second tier" - improvements: -7.84 meV to -0.48 meV
  #     hydro 3 d 3.3
  #     hydro 5 f 9.8
  #     hydro 1 s 0.75
  #     hydro 5 g 11.2
  #     hydro 4 p 10.4
  #  "Third tier" - improvements: -1.00 meV to -0.12 meV
  #     hydro 4 d 12.8
  #     hydro 4 f 4.6
  #     hydro 4 d 10.8
  #     hydro 2 s 1.8
  #     hydro 3 p 3
  #  Further functions that fell out - improvements: -0.10 meV and below
  #     hydro 5 f 14.4
  #     hydro 4 s 12.8
  #     hydro 3 d 11.6
  #     hydro 4 s 4.1
  
  -----------------------------------------------------------------------
  Completed first pass over input file control.in .
  -----------------------------------------------------------------------
  
  
  -----------------------------------------------------------------------
  Parsing geometry.in (first pass over file, find array dimensions only).
  The contents of geometry.in will be repeated verbatim below
  unless switched off by setting 'verbatim_writeout .false.' .
  in the first line of geometry.in .
  -----------------------------------------------------------------------
  
  #=======================================================
  # FHI-aims file: /home/gz_fan/Documents/ML/train/battery/CCS/CCS/test/LiS/aims_geo/geometry.in.4
  # Created using the Atomic Simulation Environment (ASE)
  # Thu Jul 21 15:36:44 2022
  #=======================================================
  lattice_vector 5.2636530400000003 0.0000000000000000 0.0000000000000000
  lattice_vector 0.0000000000000000 5.2636530400000003 0.0000000000000000
  lattice_vector 0.0000000000000000 0.0000000000000000 5.2636530400000003
  atom 1.3159132600000001 3.9477397800000005 3.9477397800000005 Li
  atom 1.3159132600000001 1.3159132600000001 3.9477397800000005 Li
  atom 1.3159132600000001 1.3159132600000001 1.3159132600000001 Li
  atom 1.3159132600000001 3.9477397800000005 1.3159132600000001 Li
  atom 3.9477397800000005 3.9477397800000005 1.3159132600000001 Li
  atom 3.9477397800000005 1.3159132600000001 1.3159132600000001 Li
  atom 3.9477397800000005 1.3159132600000001 3.9477397800000005 Li
  atom 3.9477397800000005 3.9477397800000005 3.9477397800000005 Li
  atom 0.0000000000000000 0.0000000000000000 0.0000000000000000 S
  atom 0.0000000000000000 2.6318265200000002 2.6318265200000002 S
  atom 2.6318265200000002 0.0000000000000000 2.6318265200000002 S
  atom 2.6318265200000002 2.6318265200000002 0.0000000000000000 S
  
  -----------------------------------------------------------------------
  Completed first pass over input file geometry.in .
  -----------------------------------------------------------------------
  

  Basic array size parameters:
  | Number of species                 :        4
  | Number of atoms                   :       12
  | Number of lattice vectors         :        3
  | Max. basis fn. angular momentum   :        2
  | Max. atomic/ionic basis occupied n:        3
  | Max. number of basis fn. types    :        3
  | Max. radial fns per species/type  :        5
  | Max. logarithmic grid size        :     1362
  | Max. radial integration grid size :       45
  | Max. angular integration grid size:      302
  | Max. angular grid division number :        8
  | Radial grid for Hartree potential :     1362
  | Number of spin channels           :        1

------------------------------------------------------------
          Reading file control.in.
------------------------------------------------------------
  XC: Using PBE gradient-corrected functionals.
  Convergence accuracy of total energy:  0.1000E-05
  Convergence accuracy of sum of eigenvalues:  0.1000E-02
  Convergence accuracy of self-consistent charge density:  0.1000E-05
  Convergence accuracy of forces:  0.1000E-03
  Friction is calculated at temperature of   0.3000E+03 K
  Found k-point grid:         6         6         6
 
  Reading configuration options for species Li                  .
  | Found nuclear charge :   3.0000
  | Found atomic mass :    6.94100000000000      amu
  | Found l_max for Hartree potential  :   4
  | Found cutoff potl. onset [A], width [A], scale factor :    3.50000    1.50000    1.00000
  | Threshold for basis-dependent cutoff potential is   0.100000E-03
  | Found data for basic radial integration grid :    29 points, outermost radius =    5.000 A
  | Found multiplier for basic radial grid :   1
  | Found angular grid specification: user-specified.
  | Specified grid contains     4 separate shells.
  | Check grid settings after all constraints further below.
  | Found free-atom valence shell :  2 s   1.000
  | Found free-ion valence shell :  1 s   2.000
  | Found hydrogenic basis function :  2 p   1.600
  | Found hydrogenic basis function :  2 s   2.000
  | Found hydrogenic basis function :  3 d   2.600
  Species Li                  : Missing cutoff potential type.
  Defaulting to exp(1/x)/(1-x)^2 type cutoff potential.
  Species Li: No 'logarithmic' tag. Using default grid for free atom:
  | Default logarithmic grid data [bohr] : 0.1000E-03 0.1000E+03 0.1012E+01
  Species Li: On-site basis accuracy parameter (for Gram-Schmidt orthonormalisation) not specified.
  Using default value basis_acc =  0.1000000E-03.
  Species Li                  : Using default innermost maximum threshold i_radial=  2 for radial functions.
  Species Li                  : Default cutoff onset for free atom density etc. : 0.35000000E+01 AA.
  Species Li                  : Basic radial grid will be enhanced according to radial_multiplier =   1, to contain    29 grid points.
 
  Reading configuration options for species P                   .
  | Found nuclear charge :  15.0000
  | Found atomic mass :    30.9737620000000      amu
  | Found l_max for Hartree potential  :   4
  | Found cutoff potl. onset [A], width [A], scale factor :    3.50000    1.50000    1.00000
  | Threshold for basis-dependent cutoff potential is   0.100000E-03
  | Found data for basic radial integration grid :    43 points, outermost radius =    5.000 A
  | Found multiplier for basic radial grid :   1
  | Found angular grid specification: user-specified.
  | Specified grid contains     5 separate shells.
  | Check grid settings after all constraints further below.
  | Found free-atom valence shell :  3 s   2.000
  | Found free-atom valence shell :  3 p   3.000
  | Found free-ion valence shell :  3 s   1.000
  | Found free-ion valence shell :  3 p   2.000
  | Found ionic basis function :  3 d , default cutoff radius.
  | Found ionic basis function :  3 p , default cutoff radius.
  | Found ionic basis function :  3 s , default cutoff radius.
  Species P                   : Missing cutoff potential type.
  Defaulting to exp(1/x)/(1-x)^2 type cutoff potential.
  Species P : No 'logarithmic' tag. Using default grid for free atom:
  | Default logarithmic grid data [bohr] : 0.1000E-03 0.1000E+03 0.1012E+01
  | Will include ionic basis functions of  2.0-fold positive P                    ion.
  Species P : On-site basis accuracy parameter (for Gram-Schmidt orthonormalisation) not specified.
  Using default value basis_acc =  0.1000000E-03.
  Species P                   : Using default innermost maximum threshold i_radial=  2 for radial functions.
  Species P                   : Default cutoff onset for free atom density etc. : 0.35000000E+01 AA.
  Species P                   : Basic radial grid will be enhanced according to radial_multiplier =   1, to contain    43 grid points.
 
  Reading configuration options for species S                   .
  | Found nuclear charge :  16.0000
  | Found atomic mass :    32.0650000000000      amu
  | Found l_max for Hartree potential  :   4
  | Found cutoff potl. onset [A], width [A], scale factor :    3.50000    1.50000    1.00000
  | Threshold for basis-dependent cutoff potential is   0.100000E-03
  | Found data for basic radial integration grid :    44 points, outermost radius =    5.000 A
  | Found multiplier for basic radial grid :   1
  | Found angular grid specification: user-specified.
  | Specified grid contains     4 separate shells.
  | Check grid settings after all constraints further below.
  | Found free-atom valence shell :  3 s   2.000
  | Found free-atom valence shell :  3 p   4.000
  | Found free-ion valence shell :  3 s   1.000
  | Found free-ion valence shell :  3 p   3.000
  | Found ionic basis function :  3 d , default cutoff radius.
  | Found hydrogenic basis function :  2 p   1.800
  | Found ionic basis function :  3 s , default cutoff radius.
  Species S                   : Missing cutoff potential type.
  Defaulting to exp(1/x)/(1-x)^2 type cutoff potential.
  Species S : No 'logarithmic' tag. Using default grid for free atom:
  | Default logarithmic grid data [bohr] : 0.1000E-03 0.1000E+03 0.1012E+01
  | Will include ionic basis functions of  2.0-fold positive S                    ion.
  Species S : On-site basis accuracy parameter (for Gram-Schmidt orthonormalisation) not specified.
  Using default value basis_acc =  0.1000000E-03.
  Species S                   : Using default innermost maximum threshold i_radial=  2 for radial functions.
  Species S                   : Default cutoff onset for free atom density etc. : 0.35000000E+01 AA.
  Species S                   : Basic radial grid will be enhanced according to radial_multiplier =   1, to contain    44 grid points.
 
  Reading configuration options for species Cl                  .
  | Found nuclear charge :  17.0000
  | Found atomic mass :    35.4530000000000      amu
  | Found l_max for Hartree potential  :   4
  | Found cutoff potl. onset [A], width [A], scale factor :    3.50000    1.50000    1.00000
  | Threshold for basis-dependent cutoff potential is   0.100000E-03
  | Found data for basic radial integration grid :    45 points, outermost radius =    5.000 A
  | Found multiplier for basic radial grid :   1
  | Found angular grid specification: user-specified.
  | Specified grid contains     4 separate shells.
  | Check grid settings after all constraints further below.
  | Found free-atom valence shell :  3 s   2.000
  | Found free-atom valence shell :  3 p   5.000
  | Found free-ion valence shell :  3 s   1.000
  | Found free-ion valence shell :  3 p   4.000
  | Found ionic basis function :  3 d , default cutoff radius.
  | Found hydrogenic basis function :  2 p   1.900
  | Found ionic basis function :  3 s , default cutoff radius.
  Species Cl                  : Missing cutoff potential type.
  Defaulting to exp(1/x)/(1-x)^2 type cutoff potential.
  Species Cl: No 'logarithmic' tag. Using default grid for free atom:
  | Default logarithmic grid data [bohr] : 0.1000E-03 0.1000E+03 0.1012E+01
  | Will include ionic basis functions of  2.0-fold positive Cl                   ion.
  Species Cl: On-site basis accuracy parameter (for Gram-Schmidt orthonormalisation) not specified.
  Using default value basis_acc =  0.1000000E-03.
  Species Cl                  : Using default innermost maximum threshold i_radial=  2 for radial functions.
  Species Cl                  : Default cutoff onset for free atom density etc. : 0.35000000E+01 AA.
  Species Cl                  : Basic radial grid will be enhanced according to radial_multiplier =   1, to contain    45 grid points.
 
  Finished reading input file 'control.in'. Consistency checks are next.
 
  MPI_IN_PLACE appears to work with this MPI implementation.
  | Keeping use_mpi_in_place .true. (see manual).
  Target number of points in a grid batch is not set. Defaulting to  100
  Method for grid partitioning is not set. Defaulting to parallel hash+maxmin partitioning.
  Batch size limit is not set. Defaulting to    200
  By default, will store active basis functions for each batch.
  If in need of memory, prune_basis_once .false. can be used to disable this option.
  communication_type for Hartree potential was not specified.
  Defaulting to calc_hartree .
  Defaulting to Pulay charge density mixer.
  Pulay mixer: Number of relevant iterations not set.
  Defaulting to    8 iterations.
  Pulay mixer: Number of initial linear mixing iterations not set.
  Defaulting to    0 iterations.
  Work space size for distributed Hartree potential not set.
  Defaulting to   0.200000E+03 MB.
  Mixing parameter for charge density mixing has not been set.
  Using default: charge_mix_param =     0.0500.
  The mixing parameter will be adjusted in iteration number     2 of the first full s.c.f. cycle only.
  Algorithm-dependent basis array size parameters:
  | n_max_pulay                         :        8
  Maximum number of self-consistency iterations not provided.
  Presetting  1000 iterations.
  Presetting      1001 iterations before the initial mixing cycle
  is restarted anyway using the sc_init_iter criterion / keyword.
  Presetting a factor      1.000 between actual scf density residual
  and density convergence criterion sc_accuracy_rho below which sc_init_iter
  takes no effect.
  Geometry relaxation not requested: no relaxation will be performed.
  Handling of forces: Unphysical translation and rotation will be removed from forces.
  No accuracy limit for integral partition fn. given. Defaulting to  0.1000E-14.
  No threshold value for u(r) in integrations given. Defaulting to  0.1000E-05.
  No occupation type (smearing scheme) given. Defaulting to Gaussian broadening, width =  0.1000E-01 eV.
  The width will be adjusted in iteration number     2 of the first full s.c.f. cycle only.
  S.C.F. convergence parameters will be adjusted in iteration number     2 of the first full s.c.f. cycle only.
  No accuracy for occupation numbers given. Defaulting to  0.1000E-12.
  No threshold value for occupation numbers given. Defaulting to  0.0000E+00.
  No accuracy for fermi level given. Defaulting to  0.1000E-19.
  Maximum # of iterations to find E_F not set. Defaulting to  200.
  Preferred method for the eigenvalue solver ('KS_method') not specified in 'control.in'.
  Defaulting to serial version, 'lapack_fast', since more k-points than CPUs available.
  Will not use alltoall communication since running on < 1024 CPUs.
  Threshold for basis singularities not set.
  Default threshold for basis singularities:  0.1000E-04
  partition_type (choice of integration weights) for integrals was not specified.
  | Using a version of the partition function of Stratmann and coworkers ('stratmann_smoother').
  | At each grid point, the set of atoms used to build the partition table is smoothly restricted to
  | only those atoms whose free-atom density would be non-zero at that grid point.
  Partitioning for Hartree potential was not defined. Using partition_type for integrals.
  | Adjusted default value of keyword multip_moments_threshold to:       0.10000000E-11
  | This value may affect high angular momentum components of the Hartree potential in periodic systems.
  Spin handling was not defined in control.in. Defaulting to unpolarized case.
  Angular momentum expansion for Kerker preconditioner not set explicitly.
  | Using default value of   0
  No explicit requirement for turning off preconditioner.
  | By default, it will be turned off when the charge convergence reaches
  | sc_accuracy_rho  =   0.100000E-05
  | sc_accuracy_eev  =   0.100000E-02
  | sc_accuracy_etot =   0.100000E-05
  No special mixing parameter while Kerker preconditioner is on.
  Using default: charge_mix_param =     0.0500.
  No q(lm)/r^(l+1) cutoff set for long-range Hartree potential.
  | Using default value of  0.100000E-09 .
  | Verify using the multipole_threshold keyword.
  Defaulting to new monopole extrapolation.
  Density update method: automatic selection selected.
  Using density matrix based charge density update.
  Using density matrix based charge density update.
  Using packed matrix style: index .
  Defaulting to use time-reversal symmetry for k-point grid.
------------------------------------------------------------


------------------------------------------------------------
          Reading geometry description geometry.in.
------------------------------------------------------------
 * Warning! You did not set the 'relativistic' flag in input file 'control.in'.
 * Since you are not attempting to treat any elements beyond Ca(Z=20), FHI-aims
 * will default to 'relativistic none'.
 * You must ensure that this is really what you want!!
 * For example, DO NOT compute total-energy differences between results from
 * different settings of the 'relativistic' flag.
  Input structure read successfully.
  The structure contains       12 atoms,  and a total of         88.000 electrons.

  Input geometry:
  | Unit cell:
  |        5.26365304        0.00000000        0.00000000
  |        0.00000000        5.26365304        0.00000000
  |        0.00000000        0.00000000        5.26365304
  | Atomic structure:
  |       Atom                x [A]            y [A]            z [A]
  |    1: Species Li            1.31591326        3.94773978        3.94773978
  |    2: Species Li            1.31591326        1.31591326        3.94773978
  |    3: Species Li            1.31591326        1.31591326        1.31591326
  |    4: Species Li            1.31591326        3.94773978        1.31591326
  |    5: Species Li            3.94773978        3.94773978        1.31591326
  |    6: Species Li            3.94773978        1.31591326        1.31591326
  |    7: Species Li            3.94773978        1.31591326        3.94773978
  |    8: Species Li            3.94773978        3.94773978        3.94773978
  |    9: Species S             0.00000000        0.00000000        0.00000000
  |   10: Species S             0.00000000        2.63182652        2.63182652
  |   11: Species S             2.63182652        0.00000000        2.63182652
  |   12: Species S             2.63182652        2.63182652        0.00000000

  Lattice parameters for 3D lattice (in Angstroms) :     5.263653    5.263653    5.263653
  Angle(s) between unit vectors (in degrees)      :    90.000000   90.000000   90.000000

  |

  | The smallest distance between any two atoms is         2.27922862 AA.
  |
  | The first atom of this pair is atom number                      3 .
  | The second atom of this pair is atom number                     9 .
  | Wigner-Seitz cell of the first atom image           0     0     0 .
  | (The Wigner-Seitz cell of the second atom is 0 0 0  by definition.)

  Symmetry information by spglib:
  | Precision set to  0.1E-04
  | Number of Operations  : 192
  | Space group           : 225
  | International         : Fm-3m
  | Schoenflies           : Oh^5

  Quantities derived from the lattice vectors:
  | Reciprocal lattice vector 1:  1.193693  0.000000  0.000000
  | Reciprocal lattice vector 2:  0.000000  1.193693  0.000000
  | Reciprocal lattice vector 3:  0.000000  0.000000  1.193693
  | Unit cell volume                               :   0.145835E+03  A^3

  Range separation radius for Ewald summation (hartree_convergence_parameter):      3.21824605 bohr.

  Fractional coordinates:
                         L1                L2                L3
       atom_frac         0.25000000        0.75000000        0.75000000  Li
       atom_frac         0.25000000        0.25000000        0.75000000  Li
       atom_frac         0.25000000        0.25000000        0.25000000  Li
       atom_frac         0.25000000        0.75000000        0.25000000  Li
       atom_frac         0.75000000        0.75000000        0.25000000  Li
       atom_frac         0.75000000        0.25000000        0.25000000  Li
       atom_frac         0.75000000        0.25000000        0.75000000  Li
       atom_frac         0.75000000        0.75000000        0.75000000  Li
       atom_frac         0.00000000        0.00000000        0.00000000  S
       atom_frac         0.00000000        0.50000000        0.50000000  S
       atom_frac         0.50000000        0.00000000        0.50000000  S
       atom_frac         0.50000000        0.50000000        0.00000000  S

  Number of empty states per atom not set in control.in - providing a guess from actual geometry.
  | Total number of empty states used during s.c.f. cycle:       24
  If you use a very high smearing, use empty_states (per atom!) in control.in to increase this value.

  Structure-dependent array size parameters: 
  | Maximum number of distinct radial functions  :       29
  | Maximum number of basis functions            :      160
  | Number of Kohn-Sham states (occupied + empty):       68
------------------------------------------------------------

------------------------------------------------------------
          Preparing all fixed parts of the calculation.
------------------------------------------------------------
  Determining machine precision:
    2.225073858507201E-308
  Setting up grids for atomic and cluster calculations.

  Creating wave function, potential, and density for free atoms.

  Species: Li

  List of occupied orbitals and eigenvalues:
    n    l              occ      energy [Ha]    energy [eV]
    1    0           2.0000        -1.876896       -51.0729
    2    0           1.0000        -0.084105        -2.2886


  Species: P

  List of occupied orbitals and eigenvalues:
    n    l              occ      energy [Ha]    energy [eV]
    1    0           2.0000       -76.351489     -2077.6297
    2    0           2.0000        -6.353717      -172.8934
    3    0           2.0000        -0.506059       -13.7706
    2    1           6.0000        -4.569386      -124.3393
    3    1           3.0000        -0.198107        -5.3908


  Species: S

  List of occupied orbitals and eigenvalues:
    n    l              occ      energy [Ha]    energy [eV]
    1    0           2.0000       -88.105825     -2397.4815
    2    0           2.0000        -7.730144      -210.3479
    3    0           2.0000        -0.627748       -17.0819
    2    1           6.0000        -5.747971      -156.4103
    3    1           4.0000        -0.255786        -6.9603


  Species: Cl

  List of occupied orbitals and eigenvalues:
    n    l              occ      energy [Ha]    energy [eV]
    1    0           2.0000      -100.709620     -2740.4482
    2    0           2.0000        -9.221874      -250.9399
    3    0           2.0000        -0.753366       -20.5001
    2    1           6.0000        -7.038743      -191.5339
    3    1           5.0000        -0.315359        -8.5813

  Creating fixed part of basis set: Ionic, confined, hydrogenic.
 
  Li                   hydrogenic:
 
  List of hydrogenic basis orbitals: 
    n    l      effective z      eigenvalue [eV]  inner max. [A]     outer max. [A]     outer radius [A]   
    2    1         1.600000        -8.6069           1.303334           1.303334           4.591005
    2    0         2.000000       -13.5631           0.203259           1.385485           4.591005
    3    2         2.600000        -9.9241           1.769240           1.769240           4.591005
 
 
  P                    ion:

  List of free ionic orbitals and eigenvalues:
    n    l      energy [Ha]    energy [eV]
    1    0       -77.297133     -2103.3620
    2    0        -7.273914      -197.9333
    3    0        -1.267536       -34.4914
    2    1        -5.491316      -149.4263
    3    1        -0.913470       -24.8568


  List of ionic basis orbitals and eigenvalues:
    n    l      energy [Ha]    energy [eV]    outer radius [A]
    3    2        -0.457308       -12.4440       4.554583
    3    1        -0.913443       -24.8560       4.337222
    3    0        -1.267519       -34.4910       3.885335

 
  S                    ion:

  List of free ionic orbitals and eigenvalues:
    n    l      energy [Ha]    energy [eV]
    1    0       -89.127201     -2425.2745
    2    0        -8.724378      -237.4024
    3    0        -1.464668       -39.8556
    2    1        -6.744348      -183.5230
    3    1        -1.048520       -28.5317


  List of ionic basis orbitals and eigenvalues:
    n    l      energy [Ha]    energy [eV]    outer radius [A]
    3    2        -0.496135       -13.5005       4.539062
    3    0        -1.464653       -39.8552       3.642502

 
  S                    hydrogenic:
 
  List of hydrogenic basis orbitals: 
    n    l      effective z      eigenvalue [eV]  inner max. [A]     outer max. [A]     outer radius [A]   
    2    1         1.800000       -10.9749           1.168531           1.168531           4.594893
 
 
  Cl                   ion:

  List of free ionic orbitals and eigenvalues:
    n    l      energy [Ha]    energy [eV]
    1    0      -101.807232     -2770.3157
    2    0       -10.290876      -280.0290
    3    0        -1.664625       -45.2967
    2    1        -8.110237      -220.6908
    3    1        -1.183915       -32.2160


  List of ionic basis orbitals and eigenvalues:
    n    l      energy [Ha]    energy [eV]    outer radius [A]
    3    2        -0.529186       -14.3999       4.541334
    3    0        -1.664610       -45.2963       3.428237

 
  Cl                   hydrogenic:
 
  List of hydrogenic basis orbitals: 
    n    l      effective z      eigenvalue [eV]  inner max. [A]     outer max. [A]     outer radius [A]   
    2    1         1.900000       -12.2492           1.113321           1.113321           4.597192
 

  Adding cutoff potential to free-atom effective potential.
  Creating atomic-like basis functions for current effective potential.

  Species Li                  :

  List of atomic basis orbitals and eigenvalues:
    n    l      energy [Ha]    energy [eV]    outer radius [A]
    1    0        -1.876896       -51.0729       4.062706
    2    0        -0.084105        -2.2886       4.591005


  Species P                   :

  List of atomic basis orbitals and eigenvalues:
    n    l      energy [Ha]    energy [eV]    outer radius [A]
    1    0       -76.351489     -2077.6297       0.736837
    2    0        -6.353717      -172.8934       2.532824
    3    0        -0.506059       -13.7706       4.499242
    2    1        -4.569386      -124.3393       2.862183
    3    1        -0.198107        -5.3908       4.554583


  Species S                   :

  List of atomic basis orbitals and eigenvalues:
    n    l      energy [Ha]    energy [eV]    outer radius [A]
    1    0       -88.105825     -2397.4815       0.682391
    2    0        -7.730144      -210.3479       2.317169
    3    0        -0.627748       -17.0819       4.483910
    2    1        -5.747971      -156.4103       2.555240
    3    1        -0.255786        -6.9603       4.539062


  Species Cl                  :

  List of atomic basis orbitals and eigenvalues:
    n    l      energy [Ha]    energy [eV]    outer radius [A]
    1    0      -100.709620     -2740.4482       0.642251
    2    0        -9.221874      -250.9399       2.128190
    3    0        -0.753366       -20.5001       4.431645
    2    1        -7.038743      -191.5339       2.346844
    3    1        -0.315359        -8.5813       4.541334

  Assembling full basis from fixed parts.
  | Species Li :   atomic orbital   1 s accepted.
  | Species Li :   atomic orbital   2 s accepted.
  | Species Li :    hydro orbital   2 s accepted.
  | Species Li :    hydro orbital   2 p accepted.
  | Species Li :    hydro orbital   3 d accepted.
  | Species P :   atomic orbital   1 s accepted.
  | Species P :   atomic orbital   2 s accepted.
  | Species P :    ionic orbital   3 s accepted.
  | Species P :   atomic orbital   3 s accepted.
  | Species P :   atomic orbital   2 p accepted.
  | Species P :    ionic orbital   3 p accepted.
  | Species P :   atomic orbital   3 p accepted.
  | Species P :    ionic orbital   3 d accepted.
  | Species S :   atomic orbital   1 s accepted.
  | Species S :   atomic orbital   2 s accepted.
  | Species S :    ionic orbital   3 s accepted.
  | Species S :   atomic orbital   3 s accepted.
  | Species S :   atomic orbital   2 p accepted.
  | Species S :   atomic orbital   3 p accepted.
  | Species S :    hydro orbital   2 p accepted.
  | Species S :    ionic orbital   3 d accepted.
  | Species Cl :   atomic orbital   1 s accepted.
  | Species Cl :   atomic orbital   2 s accepted.
  | Species Cl :    ionic orbital   3 s accepted.
  | Species Cl :   atomic orbital   3 s accepted.
  | Species Cl :   atomic orbital   2 p accepted.
  | Species Cl :   atomic orbital   3 p accepted.
  | Species Cl :    hydro orbital   2 p accepted.
  | Species Cl :    ionic orbital   3 d accepted.
 
  Basis size parameters after reduction:
  | Total number of radial functions:       29
  | Total number of basis functions :      160
 
  Per-task memory consumption for arrays in subroutine allocate_ext:
  |           7.590024MB.
  Testing on-site integration grid accuracy.
  |  Species  Function  <phi|h_atom|phi> (log., in eV)  <phi|h_atom|phi> (rad., in eV)
           1        1                -51.0729407432                -51.0729328795
           1        2                 -2.3261068990                 -2.3227046518
           1        3                 17.1966930198                 17.2358027191 ***
           1        4                  0.3867256281                  0.3982841734
           1        5                  6.2743141416                  6.2817896417
           2        6              -2077.6297159538              -2077.6288551184
           2        7               -172.8934457906               -172.8934403880
           2        8                -13.4653967551                -13.4655200798
           2        9                  6.4162845277                  6.4013396720
           2       10               -124.3393201040               -124.3393200061
           2       11                 -4.7560266034                 -4.7560495157
           2       12                  6.5873401476                  6.4958904717 ***
           2       13                  5.2911719464                  5.2826493609
           3       14              -2397.4814915323              -2397.4804563634
           3       15               -210.3479335736               -210.3479265952
           3       16                -16.8079362322                -16.8079092816
           3       17                  7.5772439785                  7.5675998324
           3       18               -156.4102581151               -156.4102580951
           3       19                 -6.9617737483                 -6.9640288036
           3       20                  7.5696988470                  7.5151244831 ***
           3       21                  6.0973034823                  6.0928113248
           4       22              -2740.4481953768              -2740.4469735573
           4       23               -250.9399497423               -250.9399403187
           4       24                -20.2462734235                -20.2462512680
           4       25                  8.9460051782                  8.9510436705
           4       26               -191.5339459398               -191.5339455009
           4       27                 -8.5819075957                 -8.5827488985
           4       28                  8.1339828089                  8.0979459360 ***
           4       29                  7.0302175114                  7.0277664253
 * Note: Onsite integrals marked "***" above are less accurate than
 * onsite_accuracy_threshold =    0.03000 eV. Usually, this is harmless.
 * When in doubt, tighten the "radial" and/or "radial_multiplier" flags to check.

  Preparing densities etc. for the partition functions (integrals / Hartree potential).

  Preparations completed.
  max(cpu_time)          :      0.413 s.
  Wall clock time (cpu1) :      0.414 s.
------------------------------------------------------------

------------------------------------------------------------
          Begin self-consistency loop: Initialization.

          Date     :  20220721, Time     :  125106.338
------------------------------------------------------------

  Initializing index lists of integration centers etc. from given atomic structure:
  Mapping all atomic coordinates to central unit cell.

  Initializing the k-points
          Using symmetry for reducing the k-points
  | k-points reduced from:      216 to      112
  | Number of k-points                             :       112
  The eigenvectors in the calculations are COMPLEX.
  | K-points in task   0:         5
  | K-points in task   1:         6
  | K-points in task   2:         6
  | K-points in task   3:         6
  | K-points in task   4:         6
  | K-points in task   5:         6
  | K-points in task   6:         6
  | K-points in task   7:         6
  | K-points in task   8:         6
  | K-points in task   9:         6
  | K-points in task  10:         6
  | K-points in task  11:         6
  | K-points in task  12:         6
  | K-points in task  13:         5
  | K-points in task  14:         5
  | K-points in task  15:         5
  | K-points in task  16:         5
  | K-points in task  17:         5
  | K-points in task  18:         5
  | K-points in task  19:         5
  | Number of basis functions in the Hamiltonian integrals :      2726
  | Number of basis functions in a single unit cell        :       160
  | Number of centers in hartree potential         :      1276
  | Number of centers in hartree multipole         :       780
  | Number of centers in electron density summation:       594
  | Number of centers in basis integrals           :       594
  | Number of centers in integrals                 :       223
  | Number of centers in hamiltonian               :       594
  | Consuming        154 KiB for k_phase.
  | Number of super-cells (origin) [n_cells]                     :         343
  | Number of super-cells (after PM_index) [n_cells]             :          88
  | Number of super-cells in hamiltonian [n_cells_in_hamiltonian]:          88
  | Size of matrix packed + index [n_hamiltonian_matrix_size] :      268869
  Partitioning the integration grid into batches with parallel hashing+maxmin method.
  | Number of batches:     1236
  | Maximal batch size:     113
  | Minimal batch size:      53
  | Average batch size:      67.767
  | Standard deviation of batch sizes:      10.511

  Integration load balanced across    20 MPI tasks.
  Work distribution over tasks is as follows:
  Task     0 has       4211 integration points.
  Task     1 has       4196 integration points.
  Task     2 has       4203 integration points.
  Task     3 has       4180 integration points.
  Task     4 has       4210 integration points.
  Task     5 has       4186 integration points.
  Task     6 has       4174 integration points.
  Task     7 has       4169 integration points.
  Task     8 has       4183 integration points.
  Task     9 has       4187 integration points.
  Task    10 has       4182 integration points.
  Task    11 has       4188 integration points.
  Task    12 has       4196 integration points.
  Task    13 has       4190 integration points.
  Task    14 has       4226 integration points.
  Task    15 has       4201 integration points.
  Task    16 has       4169 integration points.
  Task    17 has       4179 integration points.
  Task    18 has       4167 integration points.
  Task    19 has       4163 integration points.
  Initializing partition tables, free-atom densities, potentials, etc. across the integration grid (initialize_grid_storage).
  | initialize_grid_storage: Actual outermost partition radius vs. multipole_radius_free
  | (-- VB: in principle, multipole_radius_free should be larger, hence this output)
  | Species        1: Confinement radius =              4.999999999999999 AA, multipole_radius_free =              5.001180127821857 AA.
  | Species        1: outer_partition_radius set to              5.001180127821857 AA .
  | Species        2: Confinement radius =              4.999999999999999 AA, multipole_radius_free =              5.022530438398565 AA.
  | Species        2: outer_partition_radius set to              5.022530438398565 AA .
  | Species        3: Confinement radius =              4.999999999999999 AA, multipole_radius_free =              5.005414751018925 AA.
  | Species        3: outer_partition_radius set to              5.005414751018925 AA .
  | Species        4: Confinement radius =              4.999999999999999 AA, multipole_radius_free =              5.007919576009533 AA.
  | Species        4: outer_partition_radius set to              5.007919576009533 AA .
  | Original list of interatomic distances with         594 x        594 entries is created.
  | Net number of integration points:    83760
  | of which are non-zero points    :    71880
  | Numerical average free-atom electrostatic potential    :    -13.40100367 eV
  Renormalizing the initial density to the exact electron count on the 3D integration grid.
  | Initial density: Formal number of electrons (from input files) :      88.0000000000
  | Integrated number of electrons on 3D grid     :      88.0159987171
  | Charge integration error                      :       0.0159987171
  | Normalization factor for density and gradient :       0.9998182294
  Obtaining max. number of non-zero basis functions in each batch (get_n_compute_maxes).
  | Maximal number of non-zero basis functions:      608 in task     0
  | Maximal number of non-zero basis functions:      608 in task     1
  | Maximal number of non-zero basis functions:      581 in task     2
  | Maximal number of non-zero basis functions:      576 in task     3
  | Maximal number of non-zero basis functions:      580 in task     4
  | Maximal number of non-zero basis functions:      584 in task     5
  | Maximal number of non-zero basis functions:      581 in task     6
  | Maximal number of non-zero basis functions:      583 in task     7
  | Maximal number of non-zero basis functions:      579 in task     8
  | Maximal number of non-zero basis functions:      608 in task     9
  | Maximal number of non-zero basis functions:      605 in task    10
  | Maximal number of non-zero basis functions:      571 in task    11
  | Maximal number of non-zero basis functions:      590 in task    12
  | Maximal number of non-zero basis functions:      590 in task    13
  | Maximal number of non-zero basis functions:      597 in task    14
  | Maximal number of non-zero basis functions:      581 in task    15
  | Maximal number of non-zero basis functions:      580 in task    16
  | Maximal number of non-zero basis functions:      595 in task    17
  | Maximal number of non-zero basis functions:      606 in task    18
  | Maximal number of non-zero basis functions:      597 in task    19
  Allocating        0.870 MB for KS_eigenvector_complex
  Integrating Hamiltonian matrix: batch-based integration.
  Time summed over all CPUs for integration: real work        5.865 s, elapsed        6.000 s
  Integrating overlap matrix.
  Time summed over all CPUs for integration: real work        4.066 s, elapsed        4.220 s
  Decreasing sparse matrix size:
   Tolerance:  9.999999824516700E-014
   Hamiltonian matrix
  | Array has   209410 nonzero elements out of   268869 elements
  | Sparsity factor is 0.221
   Overlap matrix
  | Array has   201508 nonzero elements out of   268869 elements
  | Sparsity factor is 0.251
  New size of hamiltonian matrix:      210349

  Updating Kohn-Sham eigenvalues and eigenvectors using ELSI and the ELPA eigensolver.
  Overlap matrix is nonsingular
  | Lowest eigenvalue of overlap  :  0.38E-03
  | Highest eigenvalue of overlap :  0.12E+02
  Finished singularity check of overlap matrix
  | Time :     0.003 s
  Finished Cholesky decomposition
  | Time :     0.001 s
  Finished transformation to standard eigenproblem
  | Time :     0.002 s
  Starting LAPACK eigensolver
  Finished solving standard eigenproblem
  | Time :     0.004 s
  Finished back-transformation of eigenvectors
  | Time :     0.000 s

  Obtaining occupation numbers and chemical potential using ELSI.
  | Chemical potential (Fermi level):    -9.64539338eV
  Writing Kohn-Sham eigenvalues.
  K-point:       1 at    0.000000    0.000000    0.000000 (in units of recip. lattice)

  State    Occupation    Eigenvalue [Ha]    Eigenvalue [eV]
      1       2.00000         -88.172510        -2399.29607
      2       2.00000         -88.172510        -2399.29607
      3       2.00000         -88.172510        -2399.29607
      4       2.00000         -88.172510        -2399.29607
      5       2.00000          -7.802356         -212.31290
      6       2.00000          -7.802356         -212.31290
      7       2.00000          -7.802356         -212.31290
      8       2.00000          -7.802356         -212.31290
      9       2.00000          -5.819594         -158.35922
     10       2.00000          -5.819594         -158.35922
     11       2.00000          -5.819594         -158.35922
     12       2.00000          -5.819594         -158.35921
     13       2.00000          -5.819594         -158.35921
     14       2.00000          -5.819594         -158.35921
     15       2.00000          -5.819594         -158.35921
     16       2.00000          -5.819594         -158.35921
     17       2.00000          -5.819594         -158.35921
     18       2.00000          -5.819594         -158.35921
     19       2.00000          -5.819594         -158.35921
     20       2.00000          -5.819594         -158.35921
     21       2.00000          -1.918464          -52.20405
     22       2.00000          -1.916952          -52.16292
     23       2.00000          -1.916952          -52.16292
     24       2.00000          -1.916952          -52.16292
     25       2.00000          -1.915616          -52.12655
     26       2.00000          -1.915616          -52.12655
     27       2.00000          -1.915616          -52.12655
     28       2.00000          -1.914407          -52.09366
     29       2.00000          -0.785100          -21.36367
     30       2.00000          -0.758094          -20.62880
     31       2.00000          -0.758094          -20.62880
     32       2.00000          -0.758094          -20.62880
     33       2.00000          -0.446547          -12.15116
     34       2.00000          -0.446547          -12.15116
     35       2.00000          -0.446547          -12.15116
     36       2.00000          -0.420943          -11.45444
     37       2.00000          -0.420943          -11.45444
     38       2.00000          -0.420943          -11.45444
     39       2.00000          -0.420943          -11.45444
     40       2.00000          -0.420943          -11.45444
     41       2.00000          -0.420943          -11.45444
     42       2.00000          -0.356138           -9.69101
     43       2.00000          -0.356138           -9.69101
     44       2.00000          -0.356138           -9.69101
     45       0.00000          -0.216655           -5.89547
     46       0.00000          -0.216655           -5.89547
     47       0.00000          -0.216655           -5.89547
     48       0.00000          -0.124512           -3.38814
     49       0.00000          -0.104459           -2.84248
     50       0.00000          -0.104459           -2.84248
     51       0.00000          -0.104459           -2.84248
     52       0.00000          -0.053262           -1.44934
     53       0.00000          -0.053262           -1.44934
     54       0.00000          -0.053262           -1.44934
     55       0.00000           0.089666            2.43993
     56       0.00000           0.089666            2.43993
     57       0.00000           0.139158            3.78667
     58       0.00000           0.139158            3.78667
     59       0.00000           0.139158            3.78667
     60       0.00000           0.139158            3.78667
     61       0.00000           0.139158            3.78667
     62       0.00000           0.139158            3.78667
     63       0.00000           0.149983            4.08124
     64       0.00000           0.149983            4.08124
     65       0.00000           0.149983            4.08124
     66       0.00000           0.149983            4.08124
     67       0.00000           0.149983            4.08124
     68       0.00000           0.149983            4.08124

  What follows are estimated values for band gap, HOMO, LUMO, etc.
  | They are estimated on a discrete k-point grid and not necessarily exact.
  | For converged numbers, create a DOS and/or band structure plot on a denser k-grid.

  Highest occupied state (VBM) at     -9.69101093 eV (relative to internal zero)
  | Occupation number:      2.00000000
  | K-point:       1 at    0.000000    0.000000    0.000000 (in units of recip. lattice)

  Lowest unoccupied state (CBM) at    -5.89547153 eV (relative to internal zero)
  | Occupation number:      0.00000000
  | K-point:       1 at    0.000000    0.000000    0.000000 (in units of recip. lattice)

  ESTIMATED overall HOMO-LUMO gap:      3.79553941 eV between HOMO at k-point 1 and LUMO at k-point 1
  | This appears to be a direct band gap.
  The gap value is above 0.2 eV. Unless you are using a very sparse k-point grid,
  this system is most likely an insulator or a semiconductor.
  Calculating total energy contributions from superposition of free atom densities.

  Total energy components:
  | Sum of eigenvalues            :        -954.23264977 Ha      -25965.99153541 eV
  | XC energy correction          :        -117.68891438 Ha       -3202.47830045 eV
  | XC potential correction       :         151.96350183 Ha        4135.13727835 eV
  | Free-atom electrostatic energy:        -733.03266249 Ha      -19946.83363006 eV
  | Hartree energy correction     :           0.00000000 Ha           0.00000000 eV
  | Entropy correction            :          -0.00000000 Ha          -0.00000000 eV
  | ---------------------------
  | Total energy                  :       -1652.99072480 Ha      -44980.16618757 eV
  | Total energy, T -> 0          :       -1652.99072480 Ha      -44980.16618757 eV  <-- do not rely on this value for anything but (periodic) metals
  | Electronic free energy        :       -1652.99072480 Ha      -44980.16618757 eV

  Derived energy quantities:
  | Kinetic energy                :        1651.62522843 Ha       44943.00914078 eV
  | Electrostatic energy          :       -3186.92703886 Ha      -86720.69702790 eV
  | Energy correction for multipole
  | error in Hartree potential    :           0.00000000 Ha           0.00000000 eV
  | Sum of eigenvalues per atom                           :       -2163.83262795 eV
  | Total energy (T->0) per atom                          :       -3748.34718230 eV  <-- do not rely on this value for anything but (periodic) metals
  | Electronic free energy per atom                       :       -3748.34718230 eV
  Initialize hartree_potential_storage
  Max. number of atoms included in rho_multipole:           12

  End scf initialization - timings             :  max(cpu_time)    wall_clock(cpu1)
  | Time for scf. initialization               :        1.018 s           1.019 s
  | Boundary condition initialization          :        0.082 s           0.082 s
  | Integration                                :        0.528 s           0.527 s
  | Solution of K.-S. eqns.                    :        0.079 s           0.078 s
  | Grid partitioning                          :        0.046 s           0.047 s
  | Preloading free-atom quantities on grid    :        0.008 s           0.009 s
  | Free-atom superposition energy             :        0.032 s           0.032 s
  | Total energy evaluation                    :        0.000 s           0.001 s

  Partial memory accounting:
  | Current value for overall tracked memory usage on task 0  :           5.078 MB
  | Peak value for overall tracked memory usage on task 0     :          10.869 MB after allocating wave
  | Largest tracked array allocation on task 0 so far         :           2.957 MB  when allocating hamiltonian_shell
  Note:  These values currently only include a subset of arrays which are explicitly tracked.
  The "true" memory usage will be greater.
------------------------------------------------------------

------------------------------------------------------------
          Begin self-consistency iteration #    1

  Date     :  20220721, Time     :  125107.357
------------------------------------------------------------
  Evaluating new KS density using the density matrix
  Evaluating density matrix
  Time summed over all CPUs for getting density from density matrix: real work        9.653 s, elapsed        9.822 s
  Integration grid: deviation in total charge (<rho> - N_e) =  -1.520561E-12
  Pulay mixing of updated and previous charge densities.

  Evaluating partitioned Hartree potential by multipole expansion.
  | Analytical far-field extrapolation by fixed multipoles:
  | Hartree multipole sum: apparent total charge =   0.165196E-01
  Summing up the Hartree potential.
  | Estimated reciprocal-space cutoff momentum G_max:         2.92701265 bohr^-1 .
  | Reciprocal lattice points for long-range Hartree potential:     436
  Time summed over all CPUs for potential: real work        5.021 s, elapsed        5.098 s
  | RMS charge density error from multipole expansion :   0.129729E-02
  | Average real-space part of the electrostatic potential :      0.00338956 eV

  Integrating Hamiltonian matrix: batch-based integration.
  Time summed over all CPUs for integration: real work        5.749 s, elapsed        5.874 s

  Updating Kohn-Sham eigenvalues and eigenvectors using ELSI and the ELPA eigensolver.
  Finished Cholesky decomposition
  | Time :     0.001 s
  Finished transformation to standard eigenproblem
  | Time :     0.001 s
  Starting LAPACK eigensolver
  Finished solving standard eigenproblem
  | Time :     0.004 s
  Finished back-transformation of eigenvectors
  | Time :     0.000 s

  Obtaining occupation numbers and chemical potential using ELSI.
  | Chemical potential (Fermi level):    -9.59381279eV
  Writing Kohn-Sham eigenvalues.
  K-point:       1 at    0.000000    0.000000    0.000000 (in units of recip. lattice)

  State    Occupation    Eigenvalue [Ha]    Eigenvalue [eV]
      1       2.00000         -88.171693        -2399.27383
      2       2.00000         -88.171693        -2399.27383
      3       2.00000         -88.171693        -2399.27383
      4       2.00000         -88.171693        -2399.27383
      5       2.00000          -7.799594         -212.23774
      6       2.00000          -7.799594         -212.23774
      7       2.00000          -7.799594         -212.23774
      8       2.00000          -7.799594         -212.23774
      9       2.00000          -5.816898         -158.28584
     10       2.00000          -5.816898         -158.28584
     11       2.00000          -5.816898         -158.28584
     12       2.00000          -5.816898         -158.28584
     13       2.00000          -5.816898         -158.28584
     14       2.00000          -5.816898         -158.28584
     15       2.00000          -5.816898         -158.28584
     16       2.00000          -5.816898         -158.28584
     17       2.00000          -5.816898         -158.28584
     18       2.00000          -5.816898         -158.28584
     19       2.00000          -5.816898         -158.28584
     20       2.00000          -5.816898         -158.28584
     21       2.00000          -1.919550          -52.23363
     22       2.00000          -1.918043          -52.19260
     23       2.00000          -1.918043          -52.19260
     24       2.00000          -1.918043          -52.19260
     25       2.00000          -1.916711          -52.15637
     26       2.00000          -1.916711          -52.15637
     27       2.00000          -1.916711          -52.15637
     28       2.00000          -1.915505          -52.12354
     29       2.00000          -0.783185          -21.31154
     30       2.00000          -0.755965          -20.57086
     31       2.00000          -0.755965          -20.57086
     32       2.00000          -0.755965          -20.57086
     33       2.00000          -0.445162          -12.11348
     34       2.00000          -0.445162          -12.11348
     35       2.00000          -0.445162          -12.11348
     36       2.00000          -0.419432          -11.41333
     37       2.00000          -0.419432          -11.41333
     38       2.00000          -0.419432          -11.41333
     39       2.00000          -0.419432          -11.41333
     40       2.00000          -0.419432          -11.41333
     41       2.00000          -0.419432          -11.41333
     42       2.00000          -0.354240           -9.63936
     43       2.00000          -0.354240           -9.63936
     44       2.00000          -0.354240           -9.63936
     45       0.00000          -0.216403           -5.88862
     46       0.00000          -0.216403           -5.88862
     47       0.00000          -0.216403           -5.88862
     48       0.00000          -0.123915           -3.37191
     49       0.00000          -0.103828           -2.82530
     50       0.00000          -0.103828           -2.82530
     51       0.00000          -0.103828           -2.82530
     52       0.00000          -0.052555           -1.43009
     53       0.00000          -0.052555           -1.43009
     54       0.00000          -0.052555           -1.43009
     55       0.00000           0.090728            2.46883
     56       0.00000           0.090728            2.46883
     57       0.00000           0.139999            3.80957
     58       0.00000           0.139999            3.80957
     59       0.00000           0.139999            3.80957
     60       0.00000           0.139999            3.80957
     61       0.00000           0.139999            3.80957
     62       0.00000           0.139999            3.80957
     63       0.00000           0.151216            4.11479
     64       0.00000           0.151216            4.11479
     65       0.00000           0.151216            4.11479
     66       0.00000           0.151216            4.11479
     67       0.00000           0.151216            4.11479
     68       0.00000           0.151216            4.11479

  What follows are estimated values for band gap, HOMO, LUMO, etc.
  | They are estimated on a discrete k-point grid and not necessarily exact.
  | For converged numbers, create a DOS and/or band structure plot on a denser k-grid.

  Highest occupied state (VBM) at     -9.63935556 eV (relative to internal zero)
  | Occupation number:      2.00000000
  | K-point:       1 at    0.000000    0.000000    0.000000 (in units of recip. lattice)

  Lowest unoccupied state (CBM) at    -5.88861552 eV (relative to internal zero)
  | Occupation number:      0.00000000
  | K-point:       1 at    0.000000    0.000000    0.000000 (in units of recip. lattice)

  ESTIMATED overall HOMO-LUMO gap:      3.75074004 eV between HOMO at k-point 1 and LUMO at k-point 1
  | This appears to be a direct band gap.
  The gap value is above 0.2 eV. Unless you are using a very sparse k-point grid,
  this system is most likely an insulator or a semiconductor.

  Total energy components:
  | Sum of eigenvalues            :        -954.10364033 Ha      -25962.48100988 eV
  | XC energy correction          :        -117.71155571 Ha       -3203.09440252 eV
  | XC potential correction       :         151.99281381 Ha        4135.93489795 eV
  | Free-atom electrostatic energy:        -733.03266249 Ha      -19946.83363006 eV
  | Hartree energy correction     :          -0.13093140 Ha          -3.56282465 eV
  | Entropy correction            :          -0.00000000 Ha          -0.00000000 eV
  | ---------------------------
  | Total energy                  :       -1652.98597611 Ha      -44980.03696916 eV
  | Total energy, T -> 0          :       -1652.98597611 Ha      -44980.03696916 eV  <-- do not rely on this value for anything but (periodic) metals
  | Electronic free energy        :       -1652.98597611 Ha      -44980.03696916 eV

  Derived energy quantities:
  | Kinetic energy                :        1651.36697462 Ha       44935.98169712 eV
  | Electrostatic energy          :       -3186.64139503 Ha      -86712.92426376 eV
  | Energy correction for multipole
  | error in Hartree potential    :           0.00153101 Ha           0.04166077 eV
  | Sum of eigenvalues per atom                           :       -2163.54008416 eV
  | Total energy (T->0) per atom                          :       -3748.33641410 eV  <-- do not rely on this value for anything but (periodic) metals
  | Electronic free energy per atom                       :       -3748.33641410 eV

  Self-consistency convergence accuracy:
  | Change of charge density      :  0.2010E+00
  | Change of sum of eigenvalues  :  0.3511E+01 eV
  | Change of total energy        :  0.1292E+00 eV

  End self-consistency iteration #     1       :  max(cpu_time)    wall_clock(cpu1)
  | Time for this iteration                    :        1.305 s           1.305 s
  | Charge density update                      :        0.508 s           0.508 s
  | Density mixing & preconditioning           :        0.177 s           0.178 s
  | Hartree multipole update                   :        0.002 s           0.001 s
  | Hartree multipole summation                :        0.259 s           0.259 s
  | Integration                                :        0.300 s           0.300 s
  | Solution of K.-S. eqns.                    :        0.058 s           0.058 s
  | Total energy evaluation                    :        0.000 s           0.000 s

  Partial memory accounting:
  | Current value for overall tracked memory usage on task 0  :           5.078 MB
  | Peak value for overall tracked memory usage on task 0     :          11.333 MB after allocating gradient_basis_wave
  | Largest tracked array allocation on task 0 so far         :           2.957 MB  when allocating hamiltonian_shell
  Note:  These values currently only include a subset of arrays which are explicitly tracked.
  The "true" memory usage will be greater.
------------------------------------------------------------

------------------------------------------------------------
          Begin self-consistency iteration #    2

  Date     :  20220721, Time     :  125108.665
------------------------------------------------------------
  Evaluating new KS density using the density matrix
  Evaluating density matrix
  Time summed over all CPUs for getting density from density matrix: real work        9.872 s, elapsed       10.121 s
  Integration grid: deviation in total charge (<rho> - N_e) =  -1.648459E-12
  Pulay mixing of updated and previous charge densities.

  Evaluating partitioned Hartree potential by multipole expansion.
  | Analytical far-field extrapolation by fixed multipoles:
  | Hartree multipole sum: apparent total charge =   0.240309E-01
  Summing up the Hartree potential.
  Time summed over all CPUs for potential: real work        5.575 s, elapsed        5.666 s
  | RMS charge density error from multipole expansion :   0.199719E-01
  | Average real-space part of the electrostatic potential :      0.23479031 eV

  Integrating Hamiltonian matrix: batch-based integration.
  Time summed over all CPUs for integration: real work        5.772 s, elapsed        5.873 s

  Updating Kohn-Sham eigenvalues and eigenvectors using ELSI and the ELPA eigensolver.
  Finished Cholesky decomposition
  | Time :     0.001 s
  Finished transformation to standard eigenproblem
  | Time :     0.001 s
  Starting LAPACK eigensolver
  Finished solving standard eigenproblem
  | Time :     0.004 s
  Finished back-transformation of eigenvectors
  | Time :     0.000 s

  Obtaining occupation numbers and chemical potential using ELSI.
  | Chemical potential (Fermi level):    -8.67750329eV
  What follows are estimated values for band gap, HOMO, LUMO, etc.
  | They are estimated on a discrete k-point grid and not necessarily exact.
  | For converged numbers, create a DOS and/or band structure plot on a denser k-grid.

  Highest occupied state (VBM) at     -8.72311561 eV (relative to internal zero)
  | Occupation number:      2.00000000
  | K-point:       1 at    0.000000    0.000000    0.000000 (in units of recip. lattice)

  Lowest unoccupied state (CBM) at    -5.73094898 eV (relative to internal zero)
  | Occupation number:      0.00000000
  | K-point:       1 at    0.000000    0.000000    0.000000 (in units of recip. lattice)

  ESTIMATED overall HOMO-LUMO gap:      2.99216664 eV between HOMO at k-point 1 and LUMO at k-point 1
  | This appears to be a direct band gap.
  The gap value is above 0.2 eV. Unless you are using a very sparse k-point grid,
  this system is most likely an insulator or a semiconductor.

  Checking to see if s.c.f. parameters should be adjusted.
  The system likely has a gap. Increased the default Pulay mixing parameter (charge_mix_param). Value:   0.200000 .
  Kept the default occupation width. Value:   0.010000 eV.

  Total energy components:
  | Sum of eigenvalues            :        -949.75067285 Ha      -25844.03073818 eV
  | XC energy correction          :        -118.05357485 Ha       -3212.40121691 eV
  | XC potential correction       :         152.43355494 Ha        4147.92807425 eV
  | Free-atom electrostatic energy:        -733.03266249 Ha      -19946.83363006 eV
  | Hartree energy correction     :          -4.54901209 Ha        -123.78491701 eV
  | Entropy correction            :          -0.00000000 Ha          -0.00000000 eV
  | ---------------------------
  | Total energy                  :       -1652.95236734 Ha      -44979.12242790 eV
  | Total energy, T -> 0          :       -1652.95236734 Ha      -44979.12242790 eV  <-- do not rely on this value for anything but (periodic) metals
  | Electronic free energy        :       -1652.95236734 Ha      -44979.12242790 eV

  Derived energy quantities:
  | Kinetic energy                :        1653.94462786 Ha       45006.12321046 eV
  | Electrostatic energy          :       -3188.84342035 Ha      -86772.84442145 eV
  | Energy correction for multipole
  | error in Hartree potential    :           0.02283877 Ha           0.62147461 eV
  | Sum of eigenvalues per atom                           :       -2153.66922818 eV
  | Total energy (T->0) per atom                          :       -3748.26020232 eV  <-- do not rely on this value for anything but (periodic) metals
  | Electronic free energy per atom                       :       -3748.26020232 eV

  Self-consistency convergence accuracy:
  | Change of charge density      :  0.1884E+00
  | Change of sum of eigenvalues  :  0.1185E+03 eV
  | Change of total energy        :  0.9145E+00 eV

  End self-consistency iteration #     2       :  max(cpu_time)    wall_clock(cpu1)
  | Time for this iteration                    :        1.368 s           1.369 s
  | Charge density update                      :        0.529 s           0.529 s
  | Density mixing & preconditioning           :        0.190 s           0.190 s
  | Hartree multipole update                   :        0.002 s           0.002 s
  | Hartree multipole summation                :        0.287 s           0.287 s
  | Integration                                :        0.300 s           0.300 s
  | Solution of K.-S. eqns.                    :        0.059 s           0.060 s
  | Total energy evaluation                    :        0.000 s           0.001 s

  Partial memory accounting:
  | Current value for overall tracked memory usage on task 0  :           5.079 MB
  | Peak value for overall tracked memory usage on task 0     :          11.333 MB after allocating gradient_basis_wave
  | Largest tracked array allocation on task 0 so far         :           2.957 MB  when allocating hamiltonian_shell
  Note:  These values currently only include a subset of arrays which are explicitly tracked.
  The "true" memory usage will be greater.
------------------------------------------------------------

------------------------------------------------------------
          Begin self-consistency iteration #    3

  Date     :  20220721, Time     :  125110.034
------------------------------------------------------------
  Evaluating new KS density using the density matrix
  Evaluating density matrix
  Time summed over all CPUs for getting density from density matrix: real work       10.021 s, elapsed       10.207 s
  Integration grid: deviation in total charge (<rho> - N_e) =  -1.506351E-12
  Pulay mixing of updated and previous charge densities.

  Evaluating partitioned Hartree potential by multipole expansion.
  | Analytical far-field extrapolation by fixed multipoles:
  | Hartree multipole sum: apparent total charge =   0.247769E-01
  Summing up the Hartree potential.
[...]
  atom #    6
   Hellmann-Feynman              :  0.786263E-12 -0.313487E-10  0.377125E-10
   Ionic forces                  :  0.000000E+00  0.000000E+00  0.000000E+00
   Multipole                     :  0.286844E-14  0.337731E-13 -0.119867E-13
   Pulay + GGA                   :  0.000000E+00  0.000000E+00  0.000000E+00
   ----------------------------------------------------------------
   Total forces(   6)            :  0.789131E-12 -0.313150E-10  0.377005E-10
  atom #    7
   Hellmann-Feynman              :  0.522651E-11 -0.225920E-10 -0.381049E-10
   Ionic forces                  :  0.000000E+00  0.000000E+00  0.000000E+00
   Multipole                     : -0.172050E-13  0.640311E-14  0.150607E-13
   Pulay + GGA                   :  0.000000E+00  0.000000E+00  0.000000E+00
   ----------------------------------------------------------------
   Total forces(   7)            :  0.520930E-11 -0.225856E-10 -0.380898E-10
  atom #    8
   Hellmann-Feynman              :  0.234906E-11  0.221001E-10 -0.386728E-10
   Ionic forces                  :  0.000000E+00  0.000000E+00  0.000000E+00
   Multipole                     : -0.586789E-14  0.167953E-14  0.156112E-13
   Pulay + GGA                   :  0.000000E+00  0.000000E+00  0.000000E+00
   ----------------------------------------------------------------
   Total forces(   8)            :  0.234319E-11  0.221018E-10 -0.386572E-10
  atom #    9
   Hellmann-Feynman              :  0.261362E-11  0.263964E-10  0.270718E-10
   Ionic forces                  :  0.000000E+00  0.000000E+00  0.000000E+00
   Multipole                     :  0.574947E-12 -0.439116E-12 -0.417303E-12
   Pulay + GGA                   :  0.000000E+00  0.000000E+00  0.000000E+00
   ----------------------------------------------------------------
   Total forces(   9)            :  0.318856E-11  0.259573E-10  0.266545E-10
  atom #   10
   Hellmann-Feynman              :  0.149329E-10  0.510373E-08  0.511984E-08
   Ionic forces                  :  0.000000E+00  0.000000E+00  0.000000E+00
   Multipole                     : -0.803837E-12  0.264442E-12 -0.724284E-12
   Pulay + GGA                   :  0.000000E+00  0.000000E+00  0.000000E+00
   ----------------------------------------------------------------
   Total forces(  10)            :  0.141291E-10  0.510399E-08  0.511911E-08
  atom #   11
   Hellmann-Feynman              :  0.513978E-08  0.929831E-12  0.504428E-08
   Ionic forces                  :  0.000000E+00  0.000000E+00  0.000000E+00
   Multipole                     :  0.342149E-13 -0.962013E-12 -0.447523E-12
   Pulay + GGA                   :  0.000000E+00  0.000000E+00  0.000000E+00
   ----------------------------------------------------------------
   Total forces(  11)            :  0.513981E-08 -0.321822E-13  0.504384E-08
  atom #   12
   Hellmann-Feynman              :  0.507057E-08  0.508937E-08 -0.194132E-10
   Ionic forces                  :  0.000000E+00  0.000000E+00  0.000000E+00
   Multipole                     : -0.828847E-12  0.796204E-12 -0.332605E-12
   Pulay + GGA                   :  0.000000E+00  0.000000E+00  0.000000E+00
   ----------------------------------------------------------------
   Total forces(  12)            :  0.506974E-08  0.509017E-08 -0.197458E-10


  Self-consistency convergence accuracy:
  | Change of charge density      :  0.1105E-06
  | Change of sum of eigenvalues  :  0.2282E-04 eV
  | Change of total energy        :  0.2064E-07 eV
  | Change of forces              :  0.3603E-08 eV/A

  Writing Kohn-Sham eigenvalues.
  K-point:       1 at    0.000000    0.000000    0.000000 (in units of recip. lattice)

  State    Occupation    Eigenvalue [Ha]    Eigenvalue [eV]
      1       2.00000         -88.099240        -2397.30229
      2       2.00000         -88.099240        -2397.30229
      3       2.00000         -88.099240        -2397.30229
      4       2.00000         -88.099240        -2397.30229
      5       2.00000          -7.740630         -210.63326
      6       2.00000          -7.740630         -210.63326
      7       2.00000          -7.740630         -210.63326
      8       2.00000          -7.740630         -210.63326
      9       2.00000          -5.756696         -156.64767
     10       2.00000          -5.756696         -156.64767
     11       2.00000          -5.756696         -156.64767
     12       2.00000          -5.756696         -156.64767
     13       2.00000          -5.756696         -156.64767
     14       2.00000          -5.756696         -156.64767
     15       2.00000          -5.756696         -156.64766
     16       2.00000          -5.756696         -156.64766
     17       2.00000          -5.756696         -156.64766
     18       2.00000          -5.756696         -156.64766
     19       2.00000          -5.756696         -156.64766
     20       2.00000          -5.756696         -156.64766
     21       2.00000          -1.932653          -52.59016
     22       2.00000          -1.931201          -52.55066
     23       2.00000          -1.931201          -52.55066
     24       2.00000          -1.931201          -52.55066
     25       2.00000          -1.929927          -52.51599
     26       2.00000          -1.929927          -52.51599
     27       2.00000          -1.929927          -52.51599
     28       2.00000          -1.928755          -52.48409
     29       2.00000          -0.751114          -20.43885
     30       2.00000          -0.720245          -19.59887
     31       2.00000          -0.720245          -19.59887
     32       2.00000          -0.720245          -19.59887
     33       2.00000          -0.422509          -11.49706
     34       2.00000          -0.422509          -11.49706
     35       2.00000          -0.422509          -11.49706
     36       2.00000          -0.394801          -10.74308
     37       2.00000          -0.394801          -10.74308
     38       2.00000          -0.394801          -10.74308
     39       2.00000          -0.394801          -10.74308
     40       2.00000          -0.394801          -10.74308
     41       2.00000          -0.394801          -10.74308
     42       2.00000          -0.322848           -8.78514
     43       2.00000          -0.322848           -8.78514
     44       2.00000          -0.322848           -8.78514
     45       0.00000          -0.207537           -5.64738
     46       0.00000          -0.207537           -5.64738
     47       0.00000          -0.207537           -5.64738
     48       0.00000          -0.108230           -2.94508
     49       0.00000          -0.093758           -2.55127
     50       0.00000          -0.093758           -2.55127
     51       0.00000          -0.093758           -2.55127
     52       0.00000          -0.041049           -1.11700
     53       0.00000          -0.041049           -1.11700
     54       0.00000          -0.041049           -1.11700
     55       0.00000           0.106781            2.90567
     56       0.00000           0.106781            2.90567
     57       0.00000           0.157436            4.28404
     58       0.00000           0.157436            4.28404
     59       0.00000           0.157436            4.28404
     60       0.00000           0.157436            4.28404
     61       0.00000           0.157436            4.28404
     62       0.00000           0.157436            4.28404
     63       0.00000           0.170400            4.63681
     64       0.00000           0.170400            4.63681
     65       0.00000           0.170400            4.63681
     66       0.00000           0.170400            4.63681
     67       0.00000           0.170400            4.63681
     68       0.00000           0.170400            4.63681

  What follows are estimated values for band gap, HOMO, LUMO, etc.
  | They are estimated on a discrete k-point grid and not necessarily exact.
  | For converged numbers, create a DOS and/or band structure plot on a denser k-grid.

  Highest occupied state (VBM) at     -8.78514136 eV (relative to internal zero)
  | Occupation number:      2.00000000
  | K-point:       1 at    0.000000    0.000000    0.000000 (in units of recip. lattice)

  Lowest unoccupied state (CBM) at    -5.64737862 eV (relative to internal zero)
  | Occupation number:      0.00000000
  | K-point:       1 at    0.000000    0.000000    0.000000 (in units of recip. lattice)

  ESTIMATED overall HOMO-LUMO gap:      3.13776274 eV between HOMO at k-point 1 and LUMO at k-point 1
  | This appears to be a direct band gap.
  The gap value is above 0.2 eV. Unless you are using a very sparse k-point grid,
  this system is most likely an insulator or a semiconductor.

  Self-consistency cycle converged.

  End self-consistency iteration #    15       :  max(cpu_time)    wall_clock(cpu1)
  | Time for this iteration                    :        1.743 s           1.744 s
  | Charge density & force component update    :        0.527 s           0.528 s
  | Density mixing                             :        0.002 s           0.001 s
  | Hartree multipole update                   :        0.001 s           0.002 s
  | Hartree multipole summation                :        0.846 s           0.846 s
  | Integration                                :        0.306 s           0.306 s
  | Solution of K.-S. eqns.                    :        0.058 s           0.059 s
  | Total energy evaluation                    :        0.001 s           0.001 s

  Partial memory accounting:
  | Current value for overall tracked memory usage on task 0  :           5.079 MB
  | Peak value for overall tracked memory usage on task 0     :          11.334 MB after allocating gradient_basis_wave
  | Largest tracked array allocation on task 0 so far         :           2.957 MB  when allocating hamiltonian_shell
  Note:  These values currently only include a subset of arrays which are explicitly tracked.
  The "true" memory usage will be greater.
------------------------------------------------------------
  |------------------------------------------
  | Final ELSI Output
  |------------------------------------------
  | Number of basis functions :          160
  | Number of electrons       :         88.0
  | Number of states          :           68
  | Solver                    :         ELPA
  | Parallel mode             :  SINGLE_PROC
  | Matrix format             :  BLACS_DENSE
  |------------------------------------------
  | ELSI Project (c)  elsi-interchange.org
  |------------------------------------------
  Removing unitary transformations (pure translations, rotations) from forces on atoms.
  Atomic forces before filtering:
  | Net force on center of mass :   0.102259E-07  0.102175E-07  0.101684E-07 eV/A
  Atomic forces after filtering:
  | Net force on center of mass :  -0.265846E-23 -0.265846E-23 -0.282461E-23 eV/A

  Energy and forces in a compact form:
  | Total energy uncorrected      :         -0.449791220123619E+05 eV
  | Total energy corrected        :         -0.449791220123619E+05 eV  <-- do not rely on this value for anything but (periodic) metals
  | Electronic free energy        :         -0.449791220123619E+05 eV
  Total atomic forces (unitary forces cleaned) [eV/Ang]:
  |   1         -0.854791446288287E-09         -0.833477594669790E-09         -0.883164037710101E-09
  |   2         -0.857619016618195E-09         -0.870253217772242E-09         -0.882657546423771E-09
  |   3         -0.853096102288873E-09         -0.877638987177978E-09         -0.812583356361810E-09
  |   4         -0.852102601457190E-09         -0.825949112508081E-09         -0.811885594313283E-09
  |   5         -0.852481593490418E-09         -0.820790470326910E-09         -0.808977584673838E-09
  |   6         -0.851371281170273E-09         -0.882769300162702E-09         -0.809662587433514E-09
  |   7         -0.846951109031977E-09         -0.874039986760022E-09         -0.885452915397833E-09
  |   8         -0.849817224634049E-09         -0.829352586367329E-09         -0.886020332223106E-09
  |   9         -0.848971848478934E-09         -0.825497048230398E-09         -0.820708612546374E-09
  |  10         -0.838031312379861E-09          0.425253819255435E-08          0.427174951416090E-08
  |  11          0.428765445256914E-08         -0.851486523497131E-09          0.419647194337797E-08
  |  12          0.421757908326892E-08          0.423871663491823E-08         -0.867108890455243E-09

  ------------------------------------ 
  Start decomposition of the XC Energy 
  ------------------------------------ 
  X and C from original XC functional choice 
  Hartree-Fock Energy :          0.000000000 Ha              0.000000000 eV
  X Energy            :       -114.773745107 Ha          -3123.152508599 eV
  C Energy            :         -3.195098613 Ha            -86.943056867 eV
  Total XC Energy     :       -117.968843719 Ha          -3210.095565466 eV
  ------------------------------------ 
  LDA X and C from self-consistent density 
  X Energy LDA        :       -105.940057887 Ha          -2882.775649122 eV
  C Energy LDA        :         -6.435834061 Ha           -175.127955209 eV
  ------------------------------------ 
  End decomposition of the XC Energy 
  ------------------------------------ 

------------------------------------------------------------

------------------------------------------------------------------------------
  Final output of selected total energy values:

  The following output summarizes some interesting total energy values
  at the end of a run (AFTER all relaxation, molecular dynamics, etc.).

  | Total energy of the DFT / Hartree-Fock s.c.f. calculation      :         -44979.122012362 eV
  | Final zero-broadening corrected energy (caution - metals only) :         -44979.122012362 eV
  | For reference only, the value of 1 Hartree used in FHI-aims is :             27.211384500 eV

  Before relying on these values, please be sure to understand exactly which
  total energy value is referred to by a given number. Different objects may
  all carry the same name 'total energy'. Definitions:

  Total energy of the DFT / Hartree-Fock s.c.f. calculation:
  | Note that this energy does not include ANY quantities calculated after the
  | s.c.f. cycle, in particular not ANY RPA, MP2, etc. many-body perturbation terms.

  Final zero-broadening corrected energy:
  | For metallic systems only, a broadening of the occupation numbers at the Fermi
  | level can be extrapolated back to zero broadening by an electron-gas inspired
  | formula. For all systems that are not real metals, this value can be
  | meaningless and should be avoided.

------------------------------------------------------------------------------
  Methods described in the following list of references were used in this FHI-aims run.
  If you publish the results, please make sure to cite these reference if they apply.
  FHI-aims is an academic code, and for our developers (often, Ph.D. students
  and postdocs), scientific credit in the community is essential.
  Thank you for helping us!

  For any use of FHI-aims, please cite:

    Volker Blum, Ralf Gehrke, Felix Hanke, Paula Havu, Ville Havu,
    Xinguo Ren, Karsten Reuter, and Matthias Scheffler
    'Ab initio molecular simulations with numeric atom-centered orbitals'
    Computer Physics Communications 180, 2175-2196 (2009)
    http://dx.doi.org/10.1016/j.cpc.2009.06.022


  The provided symmetry information was generated with SPGlib:

    Atsushi Togo, Yusuke Seto, Dimitar Pashov
    SPGlib 1.7.3 obtained from http://spglib.sourceforge.net
    Copyright (C) 2008 Atsushi Togo


  The scalable eigensolver library ELPA was used in your run.
  ELPA is essential especially for large systems on hundreds or thousands of CPUs.
  For ELPA, please cite:

    Andreas Marek, Volker Blum, Rainer Johanni, Ville Havu, Bruno Lang,
    Thomas Auckenthaler, Alexander Heinecke, Hans-Joachim Bungartz, and Hermann Lederer,
    'The ELPA Library - Scalable Parallel Eigenvalue Solutions
    for Electronic Structure Theory and Computational Science'
    The Journal of Physics: Condensed Matter 26, 213201 (2014).
    http://dx.doi.org/10.1088/0953-8984/26/21/213201


  The ELSI infrastructure was used in your run to solve the Kohn-Sham electronic structure.
  Please check out http://elsi-interchange.org to learn more.
  If scalability is important for your project, please acknowledge ELSI by citing:

    V. W-z. Yu, F. Corsetti, A. Garcia, W. P. Huhn, M. Jacquelin, W. Jia,
    B. Lange, L. Lin, J. Lu, W. Mi, A. Seifitokaldani, A. Vazquez-Mayagoitia,
    C. Yang, H. Yang, and V. Blum
    'ELSI: A unified software interface for Kohn-Sham electronic structure solvers'
    Computer Physics Communications 222, 267-285 (2018).
    http://dx.doi.org/10.1016/j.cpc.2017.09.007


  For the real-space grid partitioning and parallelization used in this calculation, please cite:

    Ville Havu, Volker Blum, Paula Havu, and Matthias Scheffler,
    'Efficient O(N) integration for all-electron electronic structure calculation'
    'using numerically tabulated basis functions'
    Journal of Computational Physics 228, 8367-8379 (2009).
    http://dx.doi.org/10.1016/j.jcp.2009.08.008

  Of course, there are many other important community references, e.g., those cited in the
  above references. Our list is limited to references that describe implementations in the
  FHI-aims code. The reason is purely practical (length of this list) - please credit others as well.

------------------------------------------------------------
          Leaving FHI-aims.
          Date     :  20220721, Time     :  125128.173

          Computational steps:
          | Number of self-consistency cycles          :           15
          | Number of SCF (re)initializations          :            1

          Detailed time accounting                     :  max(cpu_time)    wall_clock(cpu1)
          | Total time                                 :       22.407 s          22.414 s
          | Preparation time                           :        0.413 s           0.414 s
          | Boundary condition initalization           :        0.082 s           0.082 s
          | Grid partitioning                          :        0.046 s           0.047 s
          | Preloading free-atom quantities on grid    :        0.008 s           0.009 s
          | Free-atom superposition energy             :        0.032 s           0.032 s
          | Total time for integrations                :        5.061 s           5.060 s
          | Total time for solution of K.-S. equations :        0.959 s           0.962 s
          | Total time for density & force components  :        7.925 s           7.921 s
          | Total time for mixing & preconditioning    :        2.501 s           2.502 s
          | Total time for Hartree multipole update    :        0.023 s           0.027 s
          | Total time for Hartree multipole sum       :        4.900 s           4.899 s
          | Total time for total energy evaluation     :        0.005 s           0.008 s

          Partial memory accounting:
          | Residual value for overall tracked memory usage across tasks :           0.000 MB (should be 0.000 MB)
          | Peak values for overall tracked memory usage (after allocating gradient_basis_wave):
          |   Minimum:       10.916 MB (on task 17)
          |   Maximum:       11.508 MB (on task  2)
          |   Average:       11.170 MB
          | Largest tracked array allocation (hamiltonian_shell):
          |   Minimum:        2.608 MB (on task 12)
          |   Maximum:        2.957 MB (on task  1)
          |   Average:        2.786 MB
          Note:  These values currently only include a subset of arrays which are explicitly tracked.
          The "true" memory usage will be greater.

          Have a nice day.
------------------------------------------------------------
