  MPI-parallelism will be employed.
------------------------------------------------------------
          Invoking FHI-aims ...
          Version 171221_1
          Compiled on 2020/09/23 at 19:46:43 on host login.service.

          When using FHI-aims, please cite the following reference:

          Volker Blum, Ralf Gehrke, Felix Hanke, Paula Havu,
          Ville Havu, Xinguo Ren, Karsten Reuter, and Matthias Scheffler,
          'Ab Initio Molecular Simulations with Numeric Atom-Centered Orbitals',
          Computer Physics Communications 180, 2175-2196 (2009)

          For any questions about FHI-aims, please visit the aimsclub website
          with its forums and wiki. Contributions to both the forums and the
          wiki are warmly encouraged - they are for you, and everyone is welcome there.

------------------------------------------------------------



  Date     :  20220723, Time     :  165719.861
  Time zero on CPU 1             :   0.860920000000000E-01  s.
  Internal wall clock time zero  :           427827439.861  s.

  FHI-aims created a unique identifier for this run for later identification
  aims_uuid : CF5174BE-B0E6-499C-A92A-0AA2C28571A2

  Using       20 parallel tasks.
  Task        0 on host node043 reporting.
  Task        1 on host node043 reporting.
  Task        2 on host node043 reporting.
  Task        3 on host node043 reporting.
  Task        4 on host node043 reporting.
  Task        5 on host node043 reporting.
  Task        6 on host node043 reporting.
  Task        7 on host node043 reporting.
  Task        8 on host node043 reporting.
  Task        9 on host node043 reporting.
  Task       10 on host node043 reporting.
  Task       11 on host node043 reporting.
  Task       12 on host node043 reporting.
  Task       13 on host node043 reporting.
  Task       14 on host node043 reporting.
  Task       15 on host node043 reporting.
  Task       16 on host node043 reporting.
  Task       17 on host node043 reporting.
  Task       18 on host node043 reporting.
  Task       19 on host node043 reporting.

  Performing system and environment tests:
  *** Environment variable OMP_NUM_THREADS is not set
  *** For performance reasons you might want to set it to 1
  | Maximum stacksize for task 0: unlimited
  | Maximum stacksize for task 1: unlimited
  | Maximum stacksize for task 2: unlimited
  | Maximum stacksize for task 3: unlimited
  | Maximum stacksize for task 4: unlimited
  | Maximum stacksize for task 5: unlimited
  | Maximum stacksize for task 6: unlimited
  | Maximum stacksize for task 7: unlimited
  | Maximum stacksize for task 8: unlimited
  | Maximum stacksize for task 9: unlimited
  | Maximum stacksize for task 10: unlimited
  | Maximum stacksize for task 11: unlimited
  | Maximum stacksize for task 12: unlimited
  | Maximum stacksize for task 13: unlimited
  | Maximum stacksize for task 14: unlimited
  | Maximum stacksize for task 15: unlimited
  | Maximum stacksize for task 16: unlimited
  | Maximum stacksize for task 17: unlimited
  | Maximum stacksize for task 18: unlimited
  | Maximum stacksize for task 19: unlimited
  | Current stacksize for task 0: unlimited
  | Current stacksize for task 1: unlimited
  | Current stacksize for task 2: unlimited
  | Current stacksize for task 3: unlimited
  | Current stacksize for task 4: unlimited
  | Current stacksize for task 5: unlimited
  | Current stacksize for task 6: unlimited
  | Current stacksize for task 7: unlimited
  | Current stacksize for task 8: unlimited
  | Current stacksize for task 9: unlimited
  | Current stacksize for task 10: unlimited
  | Current stacksize for task 11: unlimited
  | Current stacksize for task 12: unlimited
  | Current stacksize for task 13: unlimited
  | Current stacksize for task 14: unlimited
  | Current stacksize for task 15: unlimited
  | Current stacksize for task 16: unlimited
  | Current stacksize for task 17: unlimited
  | Current stacksize for task 18: unlimited
  | Current stacksize for task 19: unlimited
  | Checking for scalapack...
  | Testing pdtran()...
  | All pdtran() tests passed.

  Obtaining array dimensions for all initial allocations:
  
  -----------------------------------------------------------------------
  Parsing control.in (first pass over file, find array dimensions only).
  The contents of control.in will be repeated verbatim below
  unless switched off by setting 'verbatim_writeout .false.' .
  in the first line of control.in .
  -----------------------------------------------------------------------
  
  #===============================================================================
  # FHI-aims file: ./control.in
  # Created using the Atomic Simulation Environment (ASE)
  # Wed Mar 24 12:41:28 2021
  #===============================================================================
  xc                                 pbe
  sc_accuracy_etot                   1e-06
  sc_accuracy_eev                    0.001
  sc_accuracy_rho                    1e-06
  sc_accuracy_forces                 0.0001
  friction_temperature               300  # default 300
  
    k_grid                           3  3  3
  
  
  ################################################################################
  #
  #  FHI-aims code project
  #  VB, Fritz-Haber Institut, 2009
  #
  #  Suggested "light" defaults for Li atom (to be pasted into control.in file)
  #  Be sure to double-check any results obtained with these settings for post-processing,
  #  e.g., with the "tight" defaults and larger basis sets.
  #
  ################################################################################
    species        Li
  #     global species definitions
      nucleus             3
      mass                6.941
  #
      l_hartree           4
  #
      cut_pot             3.5  1.5  1.0
      basis_dep_cutoff    1e-4
  #
      radial_base         29 5.0
      radial_multiplier   1
      angular_grids       specified
        division   0.4484  110
        division   0.5659  194
        division   0.6315  302
  #      division   0.6662  434
  #      division   0.8186  590
  #      division   0.9037  770
  #      division   6.2760  974
  #      outer_grid   974
        outer_grid   302
  ################################################################################
  #
  #  Definition of "minimal" basis
  #
  ################################################################################
  #     valence basis states
      valence      2  s   1.
  #     ion occupancy
      ion_occ      1  s   2.
  ################################################################################
  #
  #  Suggested additional basis functions. For production calculations,
  #  uncomment them one after another (the most important basis functions are
  #  listed first).
  #
  #  Constructed for dimers: 1.80 A, 2.25 A, 2.75 A, 3.50 A, 4.50 A
  #
  ################################################################################
  #  "First tier" - improvements: -189.23 meV to -6.35 meV
       hydro 2 p 1.6
       hydro 2 s 2
       hydro 3 d 2.6
  #  "Second tier" - improvements: -4.69 meV to -0.41 meV
  #     hydro 3 p 4.6
  #     hydro 2 p 1.8
  #     hydro 3 s 6.2
  #     hydro 4 d 4.7
  #     hydro 4 f 4.1
  #  "Third tier" - improvements: -0.20 meV to -0.15 meV
  #     hydro 4 d 0.95
  #     hydro 3 p 6.2
  #     hydro 3 s 1.7
  #  Further functions, listed for completeness
  #     VB: The following functions are only listed for completeness; test very
  #         carefully before any kind of production use. From the point of view
  #         of the basis construction, their main role is to fill up space,
  #         and they are solely determined by the location of the cutoff potential.
  #     hydro 3 p 0.1  # -0.15 meV
  #     hydro 4 d 5    # -0.12 meV
  #     hydro 4 f 0.1  # -0.14 meV
  #     hydro 5 g 0.1  # -0.06 meV
  
  
  ################################################################################
  #
  #  FHI-aims code project
  #  VB, Fritz-Haber Institut, 2010
  #
  #  Suggested "light" defaults for P atom (to be pasted into control.in file)
  #  Be sure to double-check any results obtained with these settings for post-processing,
  #  e.g., with the "tight" defaults and larger basis sets.
  #
  ################################################################################
    species        P
  #     global species definitions
      nucleus             15
      mass                30.973762
  #
      l_hartree           4
  #
      cut_pot             3.5          1.5  1.0
      basis_dep_cutoff    1e-4
  #
      radial_base         43 5.0
      radial_multiplier   1
      angular_grids       specified
        division   0.5527   50
        division   0.8801  110
        division   1.1447  194
        division   1.3165  302
  #      division   1.4113  434
  #      division   1.4781  590
  #      division   1.5482  770
  #      division   1.5845  974
  #      division   2.2606 1202
        outer_grid  302
  ################################################################################
  #
  #  Definition of "minimal" basis
  #
  ################################################################################
  #     valence basis states
      valence      3  s   2.
      valence      3  p   3.
  #     ion occupancy
      ion_occ      3  s   1.
      ion_occ      3  p   2.
  ################################################################################
  #
  #  Suggested additional basis functions. For production calculations,
  #  uncomment them one after another (the most important basis functions are
  #  listed first).
  #
  #  Constructed for dimers: 1.625 A, 1.875 A, 2.5 A, 3.25 A, 4.0 A
  #
  ################################################################################
  #  "First tier" - improvements: -726.20 meV to -35.91 meV
       ionic 3 d auto
       ionic 3 p auto
  #     hydro 4 f 6.2
  #     hydro 5 g 8.6
       ionic 3 s auto
  #  "Second tier" - improvements: -16.02 meV to -1.71 meV
  #     hydro 4 d 6.2
  #     hydro 4 p 9.2
  #     hydro 5 f 9.8
  #     hydro 1 s 0.7
  #     hydro 5 g 13.2
  #  "Third tier" - improvements: -1.82 meV to -0.20 meV
  #     hydro 3 p 2.5
  #     hydro 4 d 6.4
  #     hydro 5 f 11.2
  #     hydro 2 s 1.5
  #  "Fourth tier" - improvements: -0.91 meV to -0.17 meV
  #     hydro 3 d 16.8
  #     hydro 5 g 18
  #     hydro 4 p 4.5
  #     hydro 3 s 2.1
  #  Further basis functions that fell out of the optimization - < -0.09 meV
  #     hydro 4 p 10.4
  #     hydro 4 d 17.6
  #     hydro 4 s 11.2
  ################################################################################
  #
  #  FHI-aims code project
  #  VB, Fritz-Haber Institut, 2009
  #
  #  Suggested "light" defaults for S atom (to be pasted into control.in file)
  #  Be sure to double-check any results obtained with these settings for post-processing,
  #  e.g., with the "tight" defaults and larger basis sets.
  #
  ################################################################################
    species        S
  #     global species definitions
      nucleus             16
      mass                32.065
  #
      l_hartree           4
  #
      cut_pot             3.5          1.5  1.0
      basis_dep_cutoff    1e-4
  #
      radial_base         44 5.0
      radial_multiplier   1
      angular_grids       specified
        division   0.4665  110
        division   0.5810  194
        division   0.7139  302
  #      division   0.8274  434
  #      division   0.9105  590
  #      division   1.0975  770
  #      division   1.2028  974
  #      outer_grid  974
        outer_grid  302
  ################################################################################
  #
  #  Definition of "minimal" basis
  #
  ################################################################################
  #     valence basis states
      valence      3  s   2.
      valence      3  p   4.
  #     ion occupancy
      ion_occ      3  s   1.
      ion_occ      3  p   3.
  ################################################################################
  #
  #  Suggested additional basis functions. For production calculations,
  #  uncomment them one after another (the most important basis functions are
  #  listed first).
  #
  #  Constructed for dimers: 1.6 A, 1.9 A, 2.5 A, 3.25 A, 4.0 A
  #
  ################################################################################
  #  "First tier" - improvements: -652.81 meV to -45.53 meV
       ionic 3 d auto
       hydro 2 p 1.8
  #     hydro 4 f 7
       ionic 3 s auto
  #  "Second tier" - improvements: -30.20 meV to -1.74 meV
  #     hydro 4 d 6.2
  #     hydro 5 g 10.8
  #     hydro 4 p 4.9
  #     hydro 5 f 10
  #     hydro 1 s 0.8
  #  "Third tier" - improvements: -1.04 meV to -0.20 meV
  #     hydro 3 d 3.9
  #     hydro 3 d 2.7
  #     hydro 5 g 12
  #     hydro 4 p 10.4
  #     hydro 5 f 12.4
  #     hydro 2 s 1.9
  #  "Fourth tier" - improvements: -0.35 meV to -0.06 meV
  #     hydro 4 d 10.4
  #     hydro 4 p 7.2
  #     hydro 4 d 10
  #     hydro 5 g 19.2
  #     hydro 4 s 12
  
  ################################################################################
  #
  #  FHI-aims code project
  #  VB, Fritz-Haber Institut, 2009
  #
  #  Suggested "light" defaults for Cl atom (to be pasted into control.in file)
  #  Be sure to double-check any results obtained with these settings for post-processing,
  #  e.g., with the "tight" defaults and larger basis sets.
  #
  ################################################################################
    species        Cl
  #     global species definitions
      nucleus             17
      mass                35.453
  #
      l_hartree           4
  #
      cut_pot             3.5          1.5  1.0
      basis_dep_cutoff    1e-4
  #
      radial_base         45 5.0
      radial_multiplier   1
      angular_grids       specified
        division   0.4412  110
        division   0.5489  194
        division   0.6734  302
  #      division   0.7794  434
  #      division   0.9402  590
  #      division   1.0779  770
  #      division   1.1792  974
  #      outer_grid  974
        outer_grid  302
  ################################################################################
  #
  #  Definition of "minimal" basis
  #
  ################################################################################
  #     valence basis states
      valence      3  s   2.
      valence      3  p   5.
  #     ion occupancy
      ion_occ      3  s   1.
      ion_occ      3  p   4.
  ################################################################################
  #
  #  Suggested additional basis functions. For production calculations,
  #  uncomment them one after another (the most important basis functions are
  #  listed first).
  #
  #  Constructed for dimers: 1.65 A, 2.0 A, 2.5 A, 3.25 A, 4.0 A
  #
  ################################################################################
  #  "First tier" - improvements: -429.57 meV to -15.03 meV
       ionic 3 d auto
       hydro 2 p 1.9
  #     hydro 4 f 7.4
       ionic 3 s auto
  #     hydro 5 g 10.4
  #  "Second tier" - improvements: -7.84 meV to -0.48 meV
  #     hydro 3 d 3.3
  #     hydro 5 f 9.8
  #     hydro 1 s 0.75
  #     hydro 5 g 11.2
  #     hydro 4 p 10.4
  #  "Third tier" - improvements: -1.00 meV to -0.12 meV
  #     hydro 4 d 12.8
  #     hydro 4 f 4.6
  #     hydro 4 d 10.8
  #     hydro 2 s 1.8
  #     hydro 3 p 3
  #  Further functions that fell out - improvements: -0.10 meV and below
  #     hydro 5 f 14.4
  #     hydro 4 s 12.8
  #     hydro 3 d 11.6
  #     hydro 4 s 4.1
  
  -----------------------------------------------------------------------
  Completed first pass over input file control.in .
  -----------------------------------------------------------------------
  
  
  -----------------------------------------------------------------------
  Parsing geometry.in (first pass over file, find array dimensions only).
  The contents of geometry.in will be repeated verbatim below
  unless switched off by setting 'verbatim_writeout .false.' .
  in the first line of geometry.in .
  -----------------------------------------------------------------------
  
  #=======================================================
  # FHI-aims file: geometry.in.0
  # Created using the Atomic Simulation Environment (ASE)
  # Sat Jul 23 22:56:02 2022
  #=======================================================
  lattice_vector 9.8979997634999997 0.0000000000000000 0.0000000000000000
  lattice_vector 0.0000000000000000 9.8979997634999997 0.0000000000000000
  lattice_vector 0.0000000000000000 0.0000000000000000 9.8979997634999997
  atom 3.0448911399999998 0.2181119500000000 6.7469083599999999 Li
  atom 3.4496453100000002 0.0687357100000000 2.8390351100000002 Li
  atom 6.8105667800000003 3.1476116400000000 0.3433567800000000 Li
  atom 6.8973062499999997 6.7325398600000002 -0.0656887500000000 Li
  atom 0.3237555200000000 6.7592080699999997 3.1539375900000000 Li
  atom 9.5146376099999994 6.6340459300000001 6.8925754499999998 Li
  atom -0.0748991900000000 3.0278494999999999 6.6718940599999996 Li
  atom 3.6218292100000000 6.2444230899999997 3.8015536900000000 Li
  atom 6.7046167600000004 8.1128496800000001 5.0845523899999998 Li
  atom 5.3612464500000003 2.0484334999999998 2.6671479900000001 Li
  atom 1.1527087800000000 8.7112358800000003 3.9637165500000000 Li
  atom 0.1738600100000000 2.1733427299999999 2.0749379000000001 Li
  atom 7.8603322499999999 -0.0719560100000000 1.6942176300000000 Li
  atom 8.1501354799999994 9.8878865200000003 8.1067039100000002 Li
  atom 2.1392211500000000 5.0981730000000001 7.3122535400000004 Li
  atom 5.9339834800000002 5.3932150300000004 7.0478407799999996 Li
  atom 7.1551175499999999 5.1241665400000000 4.7739406999999998 Li
  atom 0.7854828200000000 8.4761052600000006 2.2540420700000001 Li
  atom 1.7152150900000001 1.9685115900000001 9.5319939100000006 Li
  atom 4.7317733899999999 6.7465008900000001 4.9612026199999999 Li
  atom 0.0081609400000000 -0.0117910800000000 4.9183067100000004 P
  atom 4.8929847700000000 0.0604535500000000 -0.1340192100000000 P
  atom 0.0510094800000000 4.9893822999999999 0.0778722500000000 P
  atom 5.0572051599999996 4.8714473600000003 4.8181855200000001 P
  atom 1.1506171900000000 8.6423898000000001 6.1007710299999998 S
  atom 8.5965499100000002 1.1064078399999999 6.0562356599999996 S
  atom 8.7270295299999994 8.6827929800000003 3.7217594799999998 S
  atom 1.2663170600000000 1.2297058400000000 3.8762679599999998 S
  atom 6.0772003500000000 1.2928268100000000 8.5947161600000008 S
  atom 6.0123846099999998 8.7370763300000007 1.0684056000000000 S
  atom 3.6762799500000001 8.7763089999999995 8.5710134799999995 S
  atom 3.6969616500000000 1.2906963800000000 0.9734614900000000 S
  atom 8.7234750499999993 5.9582073900000001 1.4445069200000000 S
  atom 1.0654511799999999 6.3104565099999999 8.8024172800000002 S
  atom 8.7537265499999997 3.7811655000000002 8.8385333399999997 S
  atom 1.4207658599999999 3.8797812999999999 1.1628748400000000 S
  atom 6.0818337600000003 6.2506537399999997 3.7186957999999999 S
  atom 6.3250500100000000 3.7921890700000001 6.0115254000000000 S
  atom 4.0858136099999998 3.6118473199999999 3.5268009100000000 S
  atom 3.6289256399999998 5.7602658299999998 6.0479883399999999 S
  atom 2.3668205900000001 2.4936749499999999 7.2540696999999996 Cl
  atom 7.3134333600000003 7.5393838000000004 7.4843314599999999 Cl
  atom 4.7367071799999998 -0.2327336200000000 4.8929528400000004 Cl
  atom 5.1615237900000004 5.0305814000000000 -0.2583427600000000 Cl
  atom -0.0497286300000000 0.2602403500000000 0.1663799400000000 Cl
  atom 0.0300422700000000 4.9570735299999997 5.0233017999999996 Cl
  atom 7.5963873000000000 2.3519079600000001 2.4720184900000000 Cl
  atom 2.4716053100000002 7.5248888599999999 2.4620893100000001 Cl
  
  -----------------------------------------------------------------------
  Completed first pass over input file geometry.in .
  -----------------------------------------------------------------------
  

  Basic array size parameters:
  | Number of species                 :        4
  | Number of atoms                   :       48
  | Number of lattice vectors         :        3
  | Max. basis fn. angular momentum   :        2
  | Max. atomic/ionic basis occupied n:        3
  | Max. number of basis fn. types    :        3
  | Max. radial fns per species/type  :        5
  | Max. logarithmic grid size        :     1362
  | Max. radial integration grid size :       45
  | Max. angular integration grid size:      302
  | Max. angular grid division number :        8
  | Radial grid for Hartree potential :     1362
  | Number of spin channels           :        1

------------------------------------------------------------
          Reading file control.in.
------------------------------------------------------------
  XC: Using PBE gradient-corrected functionals.
  Convergence accuracy of total energy:  0.1000E-05
  Convergence accuracy of sum of eigenvalues:  0.1000E-02
  Convergence accuracy of self-consistent charge density:  0.1000E-05
  Convergence accuracy of forces:  0.1000E-03
  Friction is calculated at temperature of   0.3000E+03 K
  Found k-point grid:         3         3         3
 
  Reading configuration options for species Li                  .
  | Found nuclear charge :   3.0000
  | Found atomic mass :    6.94100000000000      amu
  | Found l_max for Hartree potential  :   4
  | Found cutoff potl. onset [A], width [A], scale factor :    3.50000    1.50000    1.00000
  | Threshold for basis-dependent cutoff potential is   0.100000E-03
  | Found data for basic radial integration grid :    29 points, outermost radius =    5.000 A
  | Found multiplier for basic radial grid :   1
  | Found angular grid specification: user-specified.
  | Specified grid contains     4 separate shells.
  | Check grid settings after all constraints further below.
  | Found free-atom valence shell :  2 s   1.000
  | Found free-ion valence shell :  1 s   2.000
  | Found hydrogenic basis function :  2 p   1.600
  | Found hydrogenic basis function :  2 s   2.000
  | Found hydrogenic basis function :  3 d   2.600
  Species Li                  : Missing cutoff potential type.
  Defaulting to exp(1/x)/(1-x)^2 type cutoff potential.
  Species Li: No 'logarithmic' tag. Using default grid for free atom:
  | Default logarithmic grid data [bohr] : 0.1000E-03 0.1000E+03 0.1012E+01
  Species Li: On-site basis accuracy parameter (for Gram-Schmidt orthonormalisation) not specified.
  Using default value basis_acc =  0.1000000E-03.
  Species Li                  : Using default innermost maximum threshold i_radial=  2 for radial functions.
  Species Li                  : Default cutoff onset for free atom density etc. : 0.35000000E+01 AA.
  Species Li                  : Basic radial grid will be enhanced according to radial_multiplier =   1, to contain    29 grid points.
 
  Reading configuration options for species P                   .
  | Found nuclear charge :  15.0000
  | Found atomic mass :    30.9737620000000      amu
  | Found l_max for Hartree potential  :   4
  | Found cutoff potl. onset [A], width [A], scale factor :    3.50000    1.50000    1.00000
  | Threshold for basis-dependent cutoff potential is   0.100000E-03
  | Found data for basic radial integration grid :    43 points, outermost radius =    5.000 A
  | Found multiplier for basic radial grid :   1
  | Found angular grid specification: user-specified.
  | Specified grid contains     5 separate shells.
  | Check grid settings after all constraints further below.
  | Found free-atom valence shell :  3 s   2.000
  | Found free-atom valence shell :  3 p   3.000
  | Found free-ion valence shell :  3 s   1.000
  | Found free-ion valence shell :  3 p   2.000
  | Found ionic basis function :  3 d , default cutoff radius.
  | Found ionic basis function :  3 p , default cutoff radius.
  | Found ionic basis function :  3 s , default cutoff radius.
  Species P                   : Missing cutoff potential type.
  Defaulting to exp(1/x)/(1-x)^2 type cutoff potential.
  Species P : No 'logarithmic' tag. Using default grid for free atom:
  | Default logarithmic grid data [bohr] : 0.1000E-03 0.1000E+03 0.1012E+01
  | Will include ionic basis functions of  2.0-fold positive P                    ion.
  Species P : On-site basis accuracy parameter (for Gram-Schmidt orthonormalisation) not specified.
  Using default value basis_acc =  0.1000000E-03.
  Species P                   : Using default innermost maximum threshold i_radial=  2 for radial functions.
  Species P                   : Default cutoff onset for free atom density etc. : 0.35000000E+01 AA.
  Species P                   : Basic radial grid will be enhanced according to radial_multiplier =   1, to contain    43 grid points.
 
  Reading configuration options for species S                   .
  | Found nuclear charge :  16.0000
  | Found atomic mass :    32.0650000000000      amu
  | Found l_max for Hartree potential  :   4
  | Found cutoff potl. onset [A], width [A], scale factor :    3.50000    1.50000    1.00000
  | Threshold for basis-dependent cutoff potential is   0.100000E-03
  | Found data for basic radial integration grid :    44 points, outermost radius =    5.000 A
  | Found multiplier for basic radial grid :   1
  | Found angular grid specification: user-specified.
  | Specified grid contains     4 separate shells.
  | Check grid settings after all constraints further below.
  | Found free-atom valence shell :  3 s   2.000
  | Found free-atom valence shell :  3 p   4.000
  | Found free-ion valence shell :  3 s   1.000
  | Found free-ion valence shell :  3 p   3.000
  | Found ionic basis function :  3 d , default cutoff radius.
  | Found hydrogenic basis function :  2 p   1.800
  | Found ionic basis function :  3 s , default cutoff radius.
  Species S                   : Missing cutoff potential type.
  Defaulting to exp(1/x)/(1-x)^2 type cutoff potential.
  Species S : No 'logarithmic' tag. Using default grid for free atom:
  | Default logarithmic grid data [bohr] : 0.1000E-03 0.1000E+03 0.1012E+01
  | Will include ionic basis functions of  2.0-fold positive S                    ion.
  Species S : On-site basis accuracy parameter (for Gram-Schmidt orthonormalisation) not specified.
  Using default value basis_acc =  0.1000000E-03.
  Species S                   : Using default innermost maximum threshold i_radial=  2 for radial functions.
  Species S                   : Default cutoff onset for free atom density etc. : 0.35000000E+01 AA.
  Species S                   : Basic radial grid will be enhanced according to radial_multiplier =   1, to contain    44 grid points.
 
  Reading configuration options for species Cl                  .
  | Found nuclear charge :  17.0000
  | Found atomic mass :    35.4530000000000      amu
  | Found l_max for Hartree potential  :   4
  | Found cutoff potl. onset [A], width [A], scale factor :    3.50000    1.50000    1.00000
  | Threshold for basis-dependent cutoff potential is   0.100000E-03
  | Found data for basic radial integration grid :    45 points, outermost radius =    5.000 A
  | Found multiplier for basic radial grid :   1
  | Found angular grid specification: user-specified.
  | Specified grid contains     4 separate shells.
  | Check grid settings after all constraints further below.
  | Found free-atom valence shell :  3 s   2.000
  | Found free-atom valence shell :  3 p   5.000
  | Found free-ion valence shell :  3 s   1.000
  | Found free-ion valence shell :  3 p   4.000
  | Found ionic basis function :  3 d , default cutoff radius.
  | Found hydrogenic basis function :  2 p   1.900
  | Found ionic basis function :  3 s , default cutoff radius.
  Species Cl                  : Missing cutoff potential type.
  Defaulting to exp(1/x)/(1-x)^2 type cutoff potential.
  Species Cl: No 'logarithmic' tag. Using default grid for free atom:
  | Default logarithmic grid data [bohr] : 0.1000E-03 0.1000E+03 0.1012E+01
  | Will include ionic basis functions of  2.0-fold positive Cl                   ion.
  Species Cl: On-site basis accuracy parameter (for Gram-Schmidt orthonormalisation) not specified.
  Using default value basis_acc =  0.1000000E-03.
  Species Cl                  : Using default innermost maximum threshold i_radial=  2 for radial functions.
  Species Cl                  : Default cutoff onset for free atom density etc. : 0.35000000E+01 AA.
  Species Cl                  : Basic radial grid will be enhanced according to radial_multiplier =   1, to contain    45 grid points.
 
  Finished reading input file 'control.in'. Consistency checks are next.
 
  MPI_IN_PLACE appears to work with this MPI implementation.
  | Keeping use_mpi_in_place .true. (see manual).
  Target number of points in a grid batch is not set. Defaulting to  100
  Method for grid partitioning is not set. Defaulting to parallel hash+maxmin partitioning.
  Batch size limit is not set. Defaulting to    200
  By default, will store active basis functions for each batch.
  If in need of memory, prune_basis_once .false. can be used to disable this option.
  communication_type for Hartree potential was not specified.
  Defaulting to calc_hartree .
  Defaulting to Pulay charge density mixer.
  Pulay mixer: Number of relevant iterations not set.
  Defaulting to    8 iterations.
  Pulay mixer: Number of initial linear mixing iterations not set.
  Defaulting to    0 iterations.
  Work space size for distributed Hartree potential not set.
  Defaulting to   0.200000E+03 MB.
  Mixing parameter for charge density mixing has not been set.
  Using default: charge_mix_param =     0.0500.
  The mixing parameter will be adjusted in iteration number     2 of the first full s.c.f. cycle only.
  Algorithm-dependent basis array size parameters:
  | n_max_pulay                         :        8
  Maximum number of self-consistency iterations not provided.
  Presetting  1000 iterations.
  Presetting      1001 iterations before the initial mixing cycle
  is restarted anyway using the sc_init_iter criterion / keyword.
  Presetting a factor      1.000 between actual scf density residual
  and density convergence criterion sc_accuracy_rho below which sc_init_iter
  takes no effect.
  Geometry relaxation not requested: no relaxation will be performed.
  Handling of forces: Unphysical translation and rotation will be removed from forces.
  No accuracy limit for integral partition fn. given. Defaulting to  0.1000E-14.
  No threshold value for u(r) in integrations given. Defaulting to  0.1000E-05.
  No occupation type (smearing scheme) given. Defaulting to Gaussian broadening, width =  0.1000E-01 eV.
  The width will be adjusted in iteration number     2 of the first full s.c.f. cycle only.
  S.C.F. convergence parameters will be adjusted in iteration number     2 of the first full s.c.f. cycle only.
  No accuracy for occupation numbers given. Defaulting to  0.1000E-12.
  No threshold value for occupation numbers given. Defaulting to  0.0000E+00.
  No accuracy for fermi level given. Defaulting to  0.1000E-19.
  Maximum # of iterations to find E_F not set. Defaulting to  200.
  Preferred method for the eigenvalue solver ('KS_method') not specified in 'control.in'.
  Defaulting to serial version, 'lapack_fast', since more k-points than CPUs available.
  Will not use alltoall communication since running on < 1024 CPUs.
  Threshold for basis singularities not set.
  Default threshold for basis singularities:  0.1000E-04
  partition_type (choice of integration weights) for integrals was not specified.
  | Using a version of the partition function of Stratmann and coworkers ('stratmann_smoother').
  | At each grid point, the set of atoms used to build the partition table is smoothly restricted to
  | only those atoms whose free-atom density would be non-zero at that grid point.
  Partitioning for Hartree potential was not defined. Using partition_type for integrals.
  | Adjusted default value of keyword multip_moments_threshold to:       0.10000000E-11
  | This value may affect high angular momentum components of the Hartree potential in periodic systems.
  Spin handling was not defined in control.in. Defaulting to unpolarized case.
  Angular momentum expansion for Kerker preconditioner not set explicitly.
  | Using default value of   0
  No explicit requirement for turning off preconditioner.
  | By default, it will be turned off when the charge convergence reaches
  | sc_accuracy_rho  =   0.100000E-05
  | sc_accuracy_eev  =   0.100000E-02
  | sc_accuracy_etot =   0.100000E-05
  No special mixing parameter while Kerker preconditioner is on.
  Using default: charge_mix_param =     0.0500.
  No q(lm)/r^(l+1) cutoff set for long-range Hartree potential.
  | Using default value of  0.100000E-09 .
  | Verify using the multipole_threshold keyword.
  Defaulting to new monopole extrapolation.
  Density update method: automatic selection selected.
  Using density matrix based charge density update.
  Using density matrix based charge density update.
  Using packed matrix style: index .
  Defaulting to use time-reversal symmetry for k-point grid.
------------------------------------------------------------


------------------------------------------------------------
          Reading geometry description geometry.in.
------------------------------------------------------------
 * Warning! You did not set the 'relativistic' flag in input file 'control.in'.
 * Since you are not attempting to treat any elements beyond Ca(Z=20), FHI-aims
 * will default to 'relativistic none'.
 * You must ensure that this is really what you want!!
 * For example, DO NOT compute total-energy differences between results from
 * different settings of the 'relativistic' flag.
  Input structure read successfully.
  The structure contains       48 atoms,  and a total of        512.000 electrons.

  Input geometry:
  | Unit cell:
  |        9.89799976        0.00000000        0.00000000
  |        0.00000000        9.89799976        0.00000000
  |        0.00000000        0.00000000        9.89799976
  | Atomic structure:
  |       Atom                x [A]            y [A]            z [A]
  |    1: Species Li            3.04489114        0.21811195        6.74690836
  |    2: Species Li            3.44964531        0.06873571        2.83903511
  |    3: Species Li            6.81056678        3.14761164        0.34335678
  |    4: Species Li            6.89730625        6.73253986       -0.06568875
  |    5: Species Li            0.32375552        6.75920807        3.15393759
  |    6: Species Li            9.51463761        6.63404593        6.89257545
  |    7: Species Li           -0.07489919        3.02784950        6.67189406
  |    8: Species Li            3.62182921        6.24442309        3.80155369
  |    9: Species Li            6.70461676        8.11284968        5.08455239
  |   10: Species Li            5.36124645        2.04843350        2.66714799
  |   11: Species Li            1.15270878        8.71123588        3.96371655
  |   12: Species Li            0.17386001        2.17334273        2.07493790
  |   13: Species Li            7.86033225       -0.07195601        1.69421763
  |   14: Species Li            8.15013548        9.88788652        8.10670391
  |   15: Species Li            2.13922115        5.09817300        7.31225354
  |   16: Species Li            5.93398348        5.39321503        7.04784078
  |   17: Species Li            7.15511755        5.12416654        4.77394070
  |   18: Species Li            0.78548282        8.47610526        2.25404207
  |   19: Species Li            1.71521509        1.96851159        9.53199391
  |   20: Species Li            4.73177339        6.74650089        4.96120262
  |   21: Species P             0.00816094       -0.01179108        4.91830671
  |   22: Species P             4.89298477        0.06045355       -0.13401921
  |   23: Species P             0.05100948        4.98938230        0.07787225
  |   24: Species P             5.05720516        4.87144736        4.81818552
  |   25: Species S             1.15061719        8.64238980        6.10077103
  |   26: Species S             8.59654991        1.10640784        6.05623566
  |   27: Species S             8.72702953        8.68279298        3.72175948
  |   28: Species S             1.26631706        1.22970584        3.87626796
  |   29: Species S             6.07720035        1.29282681        8.59471616
  |   30: Species S             6.01238461        8.73707633        1.06840560
  |   31: Species S             3.67627995        8.77630900        8.57101348
  |   32: Species S             3.69696165        1.29069638        0.97346149
  |   33: Species S             8.72347505        5.95820739        1.44450692
  |   34: Species S             1.06545118        6.31045651        8.80241728
  |   35: Species S             8.75372655        3.78116550        8.83853334
  |   36: Species S             1.42076586        3.87978130        1.16287484
  |   37: Species S             6.08183376        6.25065374        3.71869580
  |   38: Species S             6.32505001        3.79218907        6.01152540
  |   39: Species S             4.08581361        3.61184732        3.52680091
  |   40: Species S             3.62892564        5.76026583        6.04798834
  |   41: Species Cl            2.36682059        2.49367495        7.25406970
  |   42: Species Cl            7.31343336        7.53938380        7.48433146
  |   43: Species Cl            4.73670718       -0.23273362        4.89295284
  |   44: Species Cl            5.16152379        5.03058140       -0.25834276
  |   45: Species Cl           -0.04972863        0.26024035        0.16637994
  |   46: Species Cl            0.03004227        4.95707353        5.02330180
  |   47: Species Cl            7.59638730        2.35190796        2.47201849
  |   48: Species Cl            2.47160531        7.52488886        2.46208931

  Lattice parameters for 3D lattice (in Angstroms) :     9.898000    9.898000    9.898000
  Angle(s) between unit vectors (in degrees)      :    90.000000   90.000000   90.000000

  |

  | The smallest distance between any two atoms is         1.68191672 AA.
  |
  | The first atom of this pair is atom number                     20 .
  | The second atom of this pair is atom number                     8 .
  | Wigner-Seitz cell of the first atom image           0     0     1 .
  | (The Wigner-Seitz cell of the second atom is 0 0 0  by definition.)

  Symmetry information by spglib:
  | Precision set to  0.1E-04
  | Number of Operations  : 1
  | Space group           : 1
  | International         : P1 r
  | Schoenflies           : C1^1

  Quantities derived from the lattice vectors:
  | Reciprocal lattice vector 1:  0.634793  0.000000  0.000000
  | Reciprocal lattice vector 2:  0.000000  0.634793  0.000000
  | Reciprocal lattice vector 3:  0.000000  0.000000  0.634793
  | Unit cell volume                               :   0.969711E+03  A^3

  Range separation radius for Ewald summation (hartree_convergence_parameter):      3.90166475 bohr.

  Fractional coordinates:
                         L1                L2                L3
       atom_frac         0.30762692        0.02203596        0.68164362  Li
       atom_frac         0.34851944        0.00694440        0.28682918  Li
       atom_frac         0.68807506        0.31800482        0.03468951  Li
       atom_frac         0.69683839        0.68019196       -0.00663657  Li
       atom_frac         0.03270919        0.68288626        0.31864393  Li
       atom_frac         0.96126872        0.67024107        0.69636044  Li
       atom_frac        -0.00756710        0.30590519        0.67406488  Li
       atom_frac         0.36591527        0.63087727        0.38407292  Li
       atom_frac         0.67737087        0.81964537        0.51369494  Li
       atom_frac         0.54164948        0.20695429        0.26946333  Li
       atom_frac         0.11645876        0.88010064        0.40045632  Li
       atom_frac         0.01756517        0.21957393        0.20963204  Li
       atom_frac         0.79413340       -0.00726975        0.17116768  Li
       atom_frac         0.82341237        0.99897825        0.81902446  Li
       atom_frac         0.21612661        0.51507104        0.73876073  Li
       atom_frac         0.59951340        0.54487928        0.71204697  Li
       atom_frac         0.72288520        0.51769718        0.48231368  Li
       atom_frac         0.07935773        0.85634527        0.22772703  Li
       atom_frac         0.17328906        0.19887974        0.96302224  Li
       atom_frac         0.47805350        0.68160245        0.50123285  Li
       atom_frac         0.00082450       -0.00119126        0.49689905  P
       atom_frac         0.49434076        0.00610765       -0.01354003  P
       atom_frac         0.00515351        0.50407986        0.00786747  P
       atom_frac         0.51093203        0.49216483        0.48678376  P
       atom_frac         0.11624745        0.87314508        0.61636403  S
       atom_frac         0.86851385        0.11178095        0.61186460  S
       atom_frac         0.88169628        0.87722703        0.37601127  S
       atom_frac         0.12793666        0.12423781        0.39162134  S
       atom_frac         0.61398267        0.13061496        0.86832859  S
       atom_frac         0.60743431        0.88271131        0.10794157  S
       atom_frac         0.37141645        0.88667501        0.86593389  S
       atom_frac         0.37350593        0.13039972        0.09834931  S
       atom_frac         0.88133716        0.60196075        0.14593928  S
       atom_frac         0.10764308        0.63754866        0.88931274  S
       atom_frac         0.88439349        0.38201309        0.89296156  S
       atom_frac         0.14354070        0.39197630        0.11748584  S
       atom_frac         0.61445079        0.63150676        0.37570175  S
       atom_frac         0.63902305        0.38312681        0.60734750  S
       atom_frac         0.41279185        0.36490679        0.35631451  S
       atom_frac         0.36663222        0.58196262        0.61103137  S
       atom_frac         0.23912110        0.25193726        0.73288239  Cl
       atom_frac         0.73887993        0.76170782        0.75614585  Cl
       atom_frac         0.47855196       -0.02351320        0.49433754  Cl
       atom_frac         0.52147140        0.50824222       -0.02610050  Cl
       atom_frac        -0.00502411        0.02629222        0.01680945  Cl
       atom_frac         0.00303519        0.50081568        0.50750676  Cl
       atom_frac         0.76746691        0.23761447        0.24974930  Cl
       atom_frac         0.24970755        0.76024339        0.24874615  Cl

  Number of empty states per atom not set in control.in - providing a guess from actual geometry.
  | Total number of empty states used during s.c.f. cycle:      114
  If you use a very high smearing, use empty_states (per atom!) in control.in to increase this value.

  Structure-dependent array size parameters: 
  | Maximum number of distinct radial functions  :       29
  | Maximum number of basis functions            :      724
  | Number of Kohn-Sham states (occupied + empty):      370
------------------------------------------------------------

------------------------------------------------------------
          Preparing all fixed parts of the calculation.
------------------------------------------------------------
  Determining machine precision:
    2.225073858507201E-308
  Setting up grids for atomic and cluster calculations.

  Creating wave function, potential, and density for free atoms.

  Species: Li

  List of occupied orbitals and eigenvalues:
    n    l              occ      energy [Ha]    energy [eV]
    1    0           2.0000        -1.876896       -51.0729
    2    0           1.0000        -0.084105        -2.2886


  Species: P

  List of occupied orbitals and eigenvalues:
    n    l              occ      energy [Ha]    energy [eV]
    1    0           2.0000       -76.351489     -2077.6297
    2    0           2.0000        -6.353717      -172.8934
    3    0           2.0000        -0.506059       -13.7706
    2    1           6.0000        -4.569386      -124.3393
    3    1           3.0000        -0.198107        -5.3908


  Species: S

  List of occupied orbitals and eigenvalues:
    n    l              occ      energy [Ha]    energy [eV]
    1    0           2.0000       -88.105825     -2397.4815
    2    0           2.0000        -7.730144      -210.3479
    3    0           2.0000        -0.627748       -17.0819
    2    1           6.0000        -5.747971      -156.4103
    3    1           4.0000        -0.255786        -6.9603


  Species: Cl

  List of occupied orbitals and eigenvalues:
    n    l              occ      energy [Ha]    energy [eV]
    1    0           2.0000      -100.709620     -2740.4482
    2    0           2.0000        -9.221874      -250.9399
    3    0           2.0000        -0.753366       -20.5001
    2    1           6.0000        -7.038743      -191.5339
    3    1           5.0000        -0.315359        -8.5813

  Creating fixed part of basis set: Ionic, confined, hydrogenic.
 
  Li                   hydrogenic:
 
  List of hydrogenic basis orbitals: 
    n    l      effective z      eigenvalue [eV]  inner max. [A]     outer max. [A]     outer radius [A]   
    2    1         1.600000        -8.6069           1.303334           1.303334           4.591005
    2    0         2.000000       -13.5631           0.203259           1.385485           4.591005
    3    2         2.600000        -9.9241           1.769240           1.769240           4.591005
 
 
  P                    ion:

  List of free ionic orbitals and eigenvalues:
    n    l      energy [Ha]    energy [eV]
    1    0       -77.297133     -2103.3620
    2    0        -7.273914      -197.9333
    3    0        -1.267536       -34.4914
    2    1        -5.491316      -149.4263
    3    1        -0.913470       -24.8568


  List of ionic basis orbitals and eigenvalues:
    n    l      energy [Ha]    energy [eV]    outer radius [A]
    3    2        -0.457308       -12.4440       4.554583
    3    1        -0.913443       -24.8560       4.337222
    3    0        -1.267519       -34.4910       3.885335

 
  S                    ion:

  List of free ionic orbitals and eigenvalues:
    n    l      energy [Ha]    energy [eV]
    1    0       -89.127201     -2425.2745
    2    0        -8.724378      -237.4024
    3    0        -1.464668       -39.8556
    2    1        -6.744348      -183.5230
    3    1        -1.048520       -28.5317


  List of ionic basis orbitals and eigenvalues:
    n    l      energy [Ha]    energy [eV]    outer radius [A]
    3    2        -0.496135       -13.5005       4.539062
    3    0        -1.464653       -39.8552       3.642502

 
  S                    hydrogenic:
 
  List of hydrogenic basis orbitals: 
    n    l      effective z      eigenvalue [eV]  inner max. [A]     outer max. [A]     outer radius [A]   
    2    1         1.800000       -10.9749           1.168531           1.168531           4.594893
 
 
  Cl                   ion:

  List of free ionic orbitals and eigenvalues:
    n    l      energy [Ha]    energy [eV]
    1    0      -101.807232     -2770.3157
    2    0       -10.290876      -280.0290
    3    0        -1.664625       -45.2967
    2    1        -8.110237      -220.6908
    3    1        -1.183915       -32.2160


  List of ionic basis orbitals and eigenvalues:
    n    l      energy [Ha]    energy [eV]    outer radius [A]
    3    2        -0.529186       -14.3999       4.541334
    3    0        -1.664610       -45.2963       3.428237

 
  Cl                   hydrogenic:
 
  List of hydrogenic basis orbitals: 
    n    l      effective z      eigenvalue [eV]  inner max. [A]     outer max. [A]     outer radius [A]   
    2    1         1.900000       -12.2492           1.113321           1.113321           4.597192
 

  Adding cutoff potential to free-atom effective potential.
  Creating atomic-like basis functions for current effective potential.

  Species Li                  :

  List of atomic basis orbitals and eigenvalues:
    n    l      energy [Ha]    energy [eV]    outer radius [A]
    1    0        -1.876896       -51.0729       4.062706
    2    0        -0.084105        -2.2886       4.591005


  Species P                   :

  List of atomic basis orbitals and eigenvalues:
    n    l      energy [Ha]    energy [eV]    outer radius [A]
    1    0       -76.351489     -2077.6297       0.736837
    2    0        -6.353717      -172.8934       2.532824
    3    0        -0.506059       -13.7706       4.499242
    2    1        -4.569386      -124.3393       2.862183
    3    1        -0.198107        -5.3908       4.554583


  Species S                   :

  List of atomic basis orbitals and eigenvalues:
    n    l      energy [Ha]    energy [eV]    outer radius [A]
    1    0       -88.105825     -2397.4815       0.682391
    2    0        -7.730144      -210.3479       2.317169
    3    0        -0.627748       -17.0819       4.483910
    2    1        -5.747971      -156.4103       2.555240
    3    1        -0.255786        -6.9603       4.539062


  Species Cl                  :

  List of atomic basis orbitals and eigenvalues:
    n    l      energy [Ha]    energy [eV]    outer radius [A]
    1    0      -100.709620     -2740.4482       0.642251
    2    0        -9.221874      -250.9399       2.128190
    3    0        -0.753366       -20.5001       4.431645
    2    1        -7.038743      -191.5339       2.346844
    3    1        -0.315359        -8.5813       4.541334

  Assembling full basis from fixed parts.
  | Species Li :   atomic orbital   1 s accepted.
  | Species Li :   atomic orbital   2 s accepted.
  | Species Li :    hydro orbital   2 s accepted.
  | Species Li :    hydro orbital   2 p accepted.
  | Species Li :    hydro orbital   3 d accepted.
  | Species P :   atomic orbital   1 s accepted.
  | Species P :   atomic orbital   2 s accepted.
  | Species P :    ionic orbital   3 s accepted.
  | Species P :   atomic orbital   3 s accepted.
  | Species P :   atomic orbital   2 p accepted.
  | Species P :    ionic orbital   3 p accepted.
  | Species P :   atomic orbital   3 p accepted.
  | Species P :    ionic orbital   3 d accepted.
  | Species S :   atomic orbital   1 s accepted.
  | Species S :   atomic orbital   2 s accepted.
  | Species S :    ionic orbital   3 s accepted.
  | Species S :   atomic orbital   3 s accepted.
  | Species S :   atomic orbital   2 p accepted.
  | Species S :   atomic orbital   3 p accepted.
  | Species S :    hydro orbital   2 p accepted.
  | Species S :    ionic orbital   3 d accepted.
  | Species Cl :   atomic orbital   1 s accepted.
  | Species Cl :   atomic orbital   2 s accepted.
  | Species Cl :    ionic orbital   3 s accepted.
  | Species Cl :   atomic orbital   3 s accepted.
  | Species Cl :   atomic orbital   2 p accepted.
  | Species Cl :   atomic orbital   3 p accepted.
  | Species Cl :    hydro orbital   2 p accepted.
  | Species Cl :    ionic orbital   3 d accepted.
 
  Basis size parameters after reduction:
  | Total number of radial functions:       29
  | Total number of basis functions :      724
 
  Per-task memory consumption for arrays in subroutine allocate_ext:
  |           7.605768MB.
  Testing on-site integration grid accuracy.
  |  Species  Function  <phi|h_atom|phi> (log., in eV)  <phi|h_atom|phi> (rad., in eV)
           1        1                -51.0729407432                -51.0729328795
           1        2                 -2.3261068990                 -2.3227046518
           1        3                 17.1966930198                 17.2358027191 ***
           1        4                  0.3867256281                  0.3982841734
           1        5                  6.2743141416                  6.2817896417
           2        6              -2077.6297159538              -2077.6288551184
           2        7               -172.8934457906               -172.8934403880
           2        8                -13.4653967551                -13.4655200798
           2        9                  6.4162845277                  6.4013396720
           2       10               -124.3393201040               -124.3393200061
           2       11                 -4.7560266034                 -4.7560495157
           2       12                  6.5873401476                  6.4958904717 ***
           2       13                  5.2911719464                  5.2826493609
           3       14              -2397.4814915323              -2397.4804563634
           3       15               -210.3479335736               -210.3479265952
           3       16                -16.8079362322                -16.8079092816
           3       17                  7.5772439785                  7.5675998324
           3       18               -156.4102581151               -156.4102580951
           3       19                 -6.9617737483                 -6.9640288036
           3       20                  7.5696988470                  7.5151244831 ***
           3       21                  6.0973034823                  6.0928113248
           4       22              -2740.4481953768              -2740.4469735573
           4       23               -250.9399497423               -250.9399403187
           4       24                -20.2462734235                -20.2462512680
           4       25                  8.9460051782                  8.9510436705
           4       26               -191.5339459398               -191.5339455009
           4       27                 -8.5819075957                 -8.5827488985
           4       28                  8.1339828089                  8.0979459360 ***
           4       29                  7.0302175114                  7.0277664253
 * Note: Onsite integrals marked "***" above are less accurate than
 * onsite_accuracy_threshold =    0.03000 eV. Usually, this is harmless.
 * When in doubt, tighten the "radial" and/or "radial_multiplier" flags to check.

  Preparing densities etc. for the partition functions (integrals / Hartree potential).

  Preparations completed.
  max(cpu_time)          :      0.444 s.
  Wall clock time (cpu1) :      0.446 s.
------------------------------------------------------------

------------------------------------------------------------
          Begin self-consistency loop: Initialization.

          Date     :  20220723, Time     :  165720.534
------------------------------------------------------------

  Initializing index lists of integration centers etc. from given atomic structure:
  Mapping all atomic coordinates to central unit cell.

  Initializing the k-points
          Using symmetry for reducing the k-points
  | k-points reduced from:       27 to       14
  | Number of k-points                             :        14
  The eigenvectors in the calculations are COMPLEX.
  | K-points in task   0:         0
  | K-points in task   1:         1
  | K-points in task   2:         1
  | K-points in task   3:         1
  | K-points in task   4:         1
  | K-points in task   5:         1
  | K-points in task   6:         1
  | K-points in task   7:         1
  | K-points in task   8:         1
  | K-points in task   9:         1
  | K-points in task  10:         1
  | K-points in task  11:         1
  | K-points in task  12:         1
  | K-points in task  13:         1
  | K-points in task  14:         1
  | K-points in task  15:         0
  | K-points in task  16:         0
  | K-points in task  17:         0
  | K-points in task  18:         0
  | K-points in task  19:         0
  | Number of basis functions in the Hamiltonian integrals :      3881
  | Number of basis functions in a single unit cell        :       724
  | Number of centers in hartree potential         :      1781
  | Number of centers in hartree multipole         :       939
  | Number of centers in electron density summation:       729
  | Number of centers in basis integrals           :       761
  | Number of centers in integrals                 :       336
  | Number of centers in hamiltonian               :       737
  | Consuming          6 KiB for k_phase.
  | Number of super-cells (origin) [n_cells]                     :         125
  | Number of super-cells (after PM_index) [n_cells]             :          28
  | Number of super-cells in hamiltonian [n_cells_in_hamiltonian]:          28
  | Size of matrix packed + index [n_hamiltonian_matrix_size] :      744050
  Partitioning the integration grid into batches with parallel hashing+maxmin method.
  | Number of batches:     4539
  | Maximal batch size:     171
  | Minimal batch size:      63
  | Average batch size:      79.161
  | Standard deviation of batch sizes:      13.667

  Integration load balanced across    20 MPI tasks.
  Work distribution over tasks is as follows:
  Task     0 has      17976 integration points.
  Task     1 has      17969 integration points.
  Task     2 has      17956 integration points.
  Task     3 has      17959 integration points.
  Task     4 has      17943 integration points.
  Task     5 has      17968 integration points.
  Task     6 has      17976 integration points.
  Task     7 has      17929 integration points.
  Task     8 has      17941 integration points.
  Task     9 has      17941 integration points.
  Task    10 has      17960 integration points.
  Task    11 has      17956 integration points.
  Task    12 has      17947 integration points.
  Task    13 has      17993 integration points.
  Task    14 has      17966 integration points.
  Task    15 has      17982 integration points.
  Task    16 has      17971 integration points.
  Task    17 has      18006 integration points.
  Task    18 has      17980 integration points.
  Task    19 has      17993 integration points.
  Initializing partition tables, free-atom densities, potentials, etc. across the integration grid (initialize_grid_storage).
  | initialize_grid_storage: Actual outermost partition radius vs. multipole_radius_free
  | (-- VB: in principle, multipole_radius_free should be larger, hence this output)
  | Species        1: Confinement radius =              4.999999999999999 AA, multipole_radius_free =              5.001180127821857 AA.
  | Species        1: outer_partition_radius set to              5.001180127821857 AA .
  | Species        2: Confinement radius =              4.999999999999999 AA, multipole_radius_free =              5.022530438398565 AA.
  | Species        2: outer_partition_radius set to              5.022530438398565 AA .
  | Species        3: Confinement radius =              4.999999999999999 AA, multipole_radius_free =              5.005414751018925 AA.
  | Species        3: outer_partition_radius set to              5.005414751018925 AA .
  | Species        4: Confinement radius =              4.999999999999999 AA, multipole_radius_free =              5.007919576009533 AA.
  | Species        4: outer_partition_radius set to              5.007919576009533 AA .
  | Original list of interatomic distances with         761 x        761 entries is created.
  | Net number of integration points:   359312
  | of which are non-zero points    :   323267
  | Numerical average free-atom electrostatic potential    :     -9.55345005 eV
  Renormalizing the initial density to the exact electron count on the 3D integration grid.
  | Initial density: Formal number of electrons (from input files) :     512.0000000000
  | Integrated number of electrons on 3D grid     :     512.0013561677
  | Charge integration error                      :       0.0013561677
  | Normalization factor for density and gradient :       0.9999973512
  Obtaining max. number of non-zero basis functions in each batch (get_n_compute_maxes).
  | Maximal number of non-zero basis functions:      438 in task     0
  | Maximal number of non-zero basis functions:      428 in task     1
  | Maximal number of non-zero basis functions:      441 in task     2
  | Maximal number of non-zero basis functions:      428 in task     3
  | Maximal number of non-zero basis functions:      437 in task     4
  | Maximal number of non-zero basis functions:      427 in task     5
  | Maximal number of non-zero basis functions:      434 in task     6
  | Maximal number of non-zero basis functions:      423 in task     7
  | Maximal number of non-zero basis functions:      434 in task     8
  | Maximal number of non-zero basis functions:      426 in task     9
  | Maximal number of non-zero basis functions:      446 in task    10
  | Maximal number of non-zero basis functions:      448 in task    11
  | Maximal number of non-zero basis functions:      457 in task    12
  | Maximal number of non-zero basis functions:      436 in task    13
  | Maximal number of non-zero basis functions:      439 in task    14
  | Maximal number of non-zero basis functions:      444 in task    15
  | Maximal number of non-zero basis functions:      432 in task    16
  | Maximal number of non-zero basis functions:      421 in task    17
  | Maximal number of non-zero basis functions:      456 in task    18
  | Maximal number of non-zero basis functions:      450 in task    19
  Allocating        0.000 MB for KS_eigenvector_complex
  Integrating Hamiltonian matrix: batch-based integration.
  Time summed over all CPUs for integration: real work       13.109 s, elapsed       13.302 s
  Integrating overlap matrix.
  Time summed over all CPUs for integration: real work        8.940 s, elapsed        9.080 s
  Decreasing sparse matrix size:
   Tolerance:  9.999999824516700E-014
   Hamiltonian matrix
  | Array has   661685 nonzero elements out of   744050 elements
  | Sparsity factor is 0.111
   Overlap matrix
  | Array has   620347 nonzero elements out of   744050 elements
  | Sparsity factor is 0.166
  New size of hamiltonian matrix:      661693

  Updating Kohn-Sham eigenvalues and eigenvectors using ELSI and the ELPA eigensolver.

  Obtaining occupation numbers and chemical potential using ELSI.
  | Chemical potential (Fermi level):    -7.43460776eV
  Writing Kohn-Sham eigenvalues.
  K-point:       1 at    0.000000    0.000000    0.000000 (in units of recip. lattice)

  State    Occupation    Eigenvalue [Ha]    Eigenvalue [eV]
      1       2.00000        -100.757892        -2741.76173
      2       2.00000        -100.731685        -2741.04860
      3       2.00000        -100.728867        -2740.97193
      4       2.00000        -100.726626        -2740.91095
      5       2.00000        -100.724075        -2740.84153
      6       2.00000        -100.723532        -2740.82676
      7       2.00000        -100.721897        -2740.78227
      8       2.00000        -100.720053        -2740.73208
      9       2.00000         -88.176489        -2399.40433
     10       2.00000         -88.170419        -2399.23918
     11       2.00000         -88.155852        -2398.84280
     12       2.00000         -88.140494        -2398.42488
     13       2.00000         -88.135406        -2398.28642
     14       2.00000         -88.134588        -2398.26417
     15       2.00000         -88.132646        -2398.21131
     16       2.00000         -88.131961        -2398.19268
     17       2.00000         -88.130673        -2398.15762
     18       2.00000         -88.129313        -2398.12061
     19       2.00000         -88.128514        -2398.09887
     20       2.00000         -88.128086        -2398.08724
     21       2.00000         -88.125483        -2398.01641
     22       2.00000         -88.124870        -2397.99973
     23       2.00000         -88.122964        -2397.94784
     24       2.00000         -88.122141        -2397.92546
     25       2.00000         -76.428972        -2079.73816
     26       2.00000         -76.401480        -2078.99005
     27       2.00000         -76.377608        -2078.34046
     28       2.00000         -76.377450        -2078.33617
     29       2.00000          -9.273143         -252.33505
     30       2.00000          -9.245670         -251.58748
     31       2.00000          -9.242859         -251.51100
     32       2.00000          -9.240345         -251.44257
     33       2.00000          -9.237747         -251.37188
     34       2.00000          -9.237102         -251.35433
     35       2.00000          -9.235399         -251.30800
     36       2.00000          -9.233278         -251.25027
     37       2.00000          -7.806129         -212.41558
     38       2.00000          -7.799555         -212.23668
     39       2.00000          -7.784110         -211.81642
     40       2.00000          -7.768631         -211.39521
     41       2.00000          -7.762863         -211.23824
     42       2.00000          -7.762076         -211.21684
     43       2.00000          -7.759828         -211.15567
     44       2.00000          -7.759351         -211.14268
     45       2.00000          -7.757771         -211.09968
     46       2.00000          -7.756289         -211.05936
     47       2.00000          -7.755427         -211.03590
     48       2.00000          -7.754955         -211.02306
     49       2.00000          -7.752246         -210.94934
     50       2.00000          -7.751679         -210.93391
     51       2.00000          -7.749518         -210.87513
     52       2.00000          -7.748466         -210.84648
     53       2.00000          -7.091197         -192.96129
     54       2.00000          -7.088945         -192.90002
     55       2.00000          -7.088597         -192.89053
     56       2.00000          -7.062923         -192.19191
     57       2.00000          -7.062080         -192.16896
     58       2.00000          -7.061933         -192.16497
     59       2.00000          -7.059654         -192.10297
     60       2.00000          -7.059563         -192.10048
     61       2.00000          -7.059303         -192.09341
     62       2.00000          -7.057420         -192.04217
     63       2.00000          -7.056970         -192.02992
     64       2.00000          -7.056688         -192.02225
     65       2.00000          -7.054735         -191.96910
     66       2.00000          -7.054488         -191.96238
     67       2.00000          -7.054138         -191.95285
     68       2.00000          -7.054084         -191.95138
     69       2.00000          -7.053868         -191.94551
     70       2.00000          -7.053407         -191.93297
     71       2.00000          -7.052434         -191.90650
     72       2.00000          -7.052039         -191.89575
     73       2.00000          -7.051855         -191.89075
     74       2.00000          -7.050211         -191.84601
     75       2.00000          -7.050019         -191.84078
     76       2.00000          -7.049835         -191.83577
     77       2.00000          -6.440711         -175.26066
     78       2.00000          -6.410827         -174.44747
     79       2.00000          -6.385440         -173.75667
     80       2.00000          -6.385236         -173.75110
     81       2.00000          -5.824251         -158.48592
     82       2.00000          -5.823678         -158.47033
     83       2.00000          -5.821663         -158.41550
     84       2.00000          -5.820112         -158.37331
     85       2.00000          -5.815350         -158.24373
     86       2.00000          -5.814903         -158.23157
     87       2.00000          -5.802575         -157.89610
     88       2.00000          -5.801201         -157.85871
     89       2.00000          -5.800368         -157.83605
     90       2.00000          -5.787092         -157.47477
     91       2.00000          -5.785937         -157.44336
     92       2.00000          -5.785020         -157.41841
     93       2.00000          -5.781718         -157.32855
     94       2.00000          -5.780395         -157.29255
     95       2.00000          -5.779742         -157.27478
     96       2.00000          -5.779629         -157.27170
     97       2.00000          -5.779474         -157.26749
     98       2.00000          -5.778618         -157.24420
     99       2.00000          -5.778442         -157.23940
    100       2.00000          -5.778153         -157.23155
    101       2.00000          -5.776963         -157.19916
    102       2.00000          -5.776567         -157.18839
    103       2.00000          -5.776444         -157.18505
    104       2.00000          -5.776354         -157.18260
    105       2.00000          -5.775959         -157.17185
    106       2.00000          -5.775371         -157.15584
    107       2.00000          -5.775099         -157.14844
    108       2.00000          -5.774316         -157.12713
    109       2.00000          -5.773987         -157.11817
    110       2.00000          -5.773492         -157.10471
    111       2.00000          -5.773455         -157.10370
    112       2.00000          -5.772774         -157.08517
    113       2.00000          -5.772577         -157.07982
    114       2.00000          -5.772191         -157.06930
    115       2.00000          -5.772130         -157.06764
    116       2.00000          -5.771821         -157.05925
    117       2.00000          -5.770737         -157.02974
    118       2.00000          -5.770439         -157.02163
    119       2.00000          -5.769902         -157.00703
    120       2.00000          -5.769133         -156.98610
    121       2.00000          -5.768765         -156.97609
    122       2.00000          -5.768168         -156.95985
    123       2.00000          -5.768117         -156.95846
    124       2.00000          -5.767229         -156.93430
    125       2.00000          -5.766747         -156.92116
    126       2.00000          -5.766369         -156.91089
    127       2.00000          -5.765868         -156.89725
    128       2.00000          -5.765096         -156.87624
    129       2.00000          -4.657026         -126.72412
    130       2.00000          -4.655538         -126.68364
    131       2.00000          -4.653994         -126.64162
    132       2.00000          -4.627914         -125.93196
    133       2.00000          -4.625028         -125.85340
    134       2.00000          -4.624715         -125.84490
    135       2.00000          -4.600929         -125.19765
    136       2.00000          -4.600715         -125.19183
    137       2.00000          -4.600694         -125.19124
    138       2.00000          -4.600446         -125.18451
    139       2.00000          -4.600443         -125.18442
    140       2.00000          -4.600350         -125.18189
    141       2.00000          -1.999835          -54.41827
    142       2.00000          -1.970476          -53.61938
    143       2.00000          -1.947946          -53.00632
    144       2.00000          -1.940376          -52.80032
    145       2.00000          -1.926966          -52.43543
    146       2.00000          -1.915989          -52.13671
    147       2.00000          -1.905472          -51.85052
    148       2.00000          -1.895235          -51.57198
    149       2.00000          -1.892130          -51.48748
    150       2.00000          -1.891840          -51.47958
    151       2.00000          -1.890027          -51.43025
    152       2.00000          -1.888701          -51.39417
    153       2.00000          -1.887605          -51.36435
    154       2.00000          -1.885596          -51.30968
    155       2.00000          -1.885047          -51.29473
    156       2.00000          -1.884732          -51.28615
    157       2.00000          -1.884501          -51.27989
    158       2.00000          -1.884388          -51.27682
    159       2.00000          -1.884224          -51.27234
    160       2.00000          -1.883835          -51.26176
    161       2.00000          -0.877474          -23.87728
    162       2.00000          -0.842357          -22.92170
    163       2.00000          -0.826912          -22.50142
    164       2.00000          -0.801454          -21.80868
    165       2.00000          -0.799233          -21.74825
    166       2.00000          -0.798593          -21.73082
    167       2.00000          -0.796916          -21.68520
    168       2.00000          -0.792584          -21.56731
    169       2.00000          -0.790446          -21.50912
    170       2.00000          -0.788721          -21.46220
    171       2.00000          -0.786816          -21.41035
    172       2.00000          -0.784548          -21.34863
    173       2.00000          -0.778511          -21.18437
    174       2.00000          -0.765527          -20.83105
    175       2.00000          -0.734809          -19.99516
    176       2.00000          -0.726182          -19.76041
    177       2.00000          -0.723548          -19.68875
    178       2.00000          -0.714669          -19.44714
    179       2.00000          -0.712561          -19.38977
    180       2.00000          -0.711364          -19.35719
    181       2.00000          -0.704720          -19.17641
    182       2.00000          -0.702162          -19.10679
    183       2.00000          -0.700555          -19.06308
    184       2.00000          -0.694735          -18.90471
    185       2.00000          -0.586211          -15.95161
    186       2.00000          -0.555786          -15.12371
    187       2.00000          -0.536196          -14.59064
    188       2.00000          -0.528341          -14.37689
    189       2.00000          -0.486194          -13.23000
    190       2.00000          -0.479674          -13.05258
    191       2.00000          -0.468807          -12.75689
    192       2.00000          -0.449815          -12.24008
    193       2.00000          -0.447520          -12.17765
    194       2.00000          -0.439238          -11.95226
    195       2.00000          -0.437643          -11.90886
    196       2.00000          -0.430202          -11.70641
    197       2.00000          -0.425049          -11.56618
    198       2.00000          -0.422180          -11.48809
    199       2.00000          -0.419565          -11.41696
    200       2.00000          -0.417131          -11.35070
    201       2.00000          -0.412812          -11.23317
    202       2.00000          -0.411972          -11.21033
    203       2.00000          -0.407348          -11.08450
    204       2.00000          -0.406135          -11.05149
    205       2.00000          -0.395028          -10.74926
    206       2.00000          -0.392885          -10.69094
    207       2.00000          -0.389723          -10.60490
    208       2.00000          -0.387072          -10.53277
    209       2.00000          -0.385011          -10.47668
    210       2.00000          -0.382589          -10.41077
    211       2.00000          -0.379684          -10.33172
    212       2.00000          -0.378381          -10.29627
    213       2.00000          -0.377957          -10.28474
    214       2.00000          -0.377158          -10.26298
    215       2.00000          -0.374239          -10.18356
    216       2.00000          -0.373750          -10.17025
    217       2.00000          -0.371332          -10.10445
    218       2.00000          -0.368459          -10.02629
    219       2.00000          -0.367464           -9.99919
    220       2.00000          -0.366410           -9.97052
    221       2.00000          -0.364292           -9.91289
    222       2.00000          -0.361596           -9.83954
    223       2.00000          -0.360634           -9.81336
    224       2.00000          -0.359482           -9.78199
    225       2.00000          -0.357801           -9.73626
    226       2.00000          -0.354913           -9.65766
    227       2.00000          -0.353971           -9.63205
    228       2.00000          -0.351705           -9.57038
    229       2.00000          -0.349792           -9.51834
    230       2.00000          -0.348856           -9.49285
    231       2.00000          -0.346982           -9.44185
    232       2.00000          -0.343590           -9.34957
    233       2.00000          -0.342155           -9.31050
    234       2.00000          -0.340632           -9.26908
    235       2.00000          -0.338341           -9.20673
    236       2.00000          -0.337379           -9.18054
    237       2.00000          -0.335252           -9.12268
    238       2.00000          -0.334118           -9.09182
    239       2.00000          -0.330199           -8.98516
    240       2.00000          -0.324103           -8.81928
    241       2.00000          -0.321337           -8.74402
    242       2.00000          -0.318882           -8.67723
    243       2.00000          -0.316399           -8.60965
    244       2.00000          -0.315577           -8.58730
    245       2.00000          -0.312629           -8.50708
    246       2.00000          -0.310108           -8.43848
    247       2.00000          -0.307286           -8.36167
    248       2.00000          -0.301370           -8.20070
    249       2.00000          -0.299316           -8.14481
    250       2.00000          -0.296343           -8.06389
    251       2.00000          -0.294390           -8.01076
    252       2.00000          -0.292132           -7.94930
    253       2.00000          -0.287011           -7.80996
    254       2.00000          -0.284274           -7.73548
    255       2.00000          -0.281361           -7.65622
    256       2.00000          -0.274886           -7.48002
    257       0.00000          -0.203799           -5.54565
    258       0.00000          -0.170987           -4.65279
    259       0.00000          -0.169900           -4.62321
    260       0.00000          -0.145340           -3.95492
    261       0.00000          -0.136710           -3.72007
    262       0.00000          -0.124119           -3.37745
    263       0.00000          -0.122057           -3.32134
    264       0.00000          -0.117961           -3.20988
    265       0.00000          -0.117287           -3.19153
    266       0.00000          -0.112378           -3.05797
    267       0.00000          -0.105891           -2.88144
    268       0.00000          -0.100560           -2.73636
    269       0.00000          -0.092185           -2.50849
    270       0.00000          -0.087770           -2.38834
    271       0.00000          -0.085348           -2.32244
    272       0.00000          -0.081326           -2.21298
    273       0.00000          -0.076251           -2.07490
    274       0.00000          -0.071399           -1.94286
    275       0.00000          -0.070323           -1.91359
    276       0.00000          -0.068197           -1.85572
    277       0.00000          -0.067559           -1.83837
    278       0.00000          -0.062158           -1.69140
    279       0.00000          -0.056760           -1.54452
    280       0.00000          -0.054061           -1.47106
    281       0.00000          -0.052443           -1.42704
    282       0.00000          -0.050581           -1.37638
    283       0.00000          -0.046472           -1.26457
    284       0.00000          -0.044633           -1.21454
    285       0.00000          -0.044370           -1.20738
    286       0.00000          -0.034992           -0.95217
    287       0.00000          -0.034076           -0.92726
    288       0.00000          -0.029172           -0.79380
[...]
    306       0.00000           0.031683            0.86215
    307       0.00000           0.033648            0.91560
    308       0.00000           0.036676            0.99800
    309       0.00000           0.041155            1.11990
    310       0.00000           0.043734            1.19007
    311       0.00000           0.045607            1.24103
    312       0.00000           0.049161            1.33774
    313       0.00000           0.050839            1.38339
    314       0.00000           0.053909            1.46694
    315       0.00000           0.054385            1.47989
    316       0.00000           0.057360            1.56084
    317       0.00000           0.058795            1.59988
    318       0.00000           0.059546            1.62033
    319       0.00000           0.062480            1.70017
    320       0.00000           0.063624            1.73129
    321       0.00000           0.067773            1.84419
    322       0.00000           0.070963            1.93100
    323       0.00000           0.071585            1.94791
    324       0.00000           0.072768            1.98011
    325       0.00000           0.075614            2.05757
    326       0.00000           0.077931            2.12060
    327       0.00000           0.081222            2.21017
    328       0.00000           0.083852            2.28173
    329       0.00000           0.086247            2.34691
    330       0.00000           0.088578            2.41032
    331       0.00000           0.092044            2.50464
    332       0.00000           0.092873            2.52720
    333       0.00000           0.094810            2.57991
    334       0.00000           0.095253            2.59195
    335       0.00000           0.102166            2.78007
    336       0.00000           0.102485            2.78875
    337       0.00000           0.104011            2.83028
    338       0.00000           0.107613            2.92830
    339       0.00000           0.108661            2.95681
    340       0.00000           0.113619            3.09174
    341       0.00000           0.115997            3.15644
    342       0.00000           0.118755            3.23150
    343       0.00000           0.119874            3.26194
    344       0.00000           0.124926            3.39940
    345       0.00000           0.127503            3.46954
    346       0.00000           0.128339            3.49229
    347       0.00000           0.132700            3.61096
    348       0.00000           0.134094            3.64889
    349       0.00000           0.136092            3.70325
    350       0.00000           0.139353            3.79199
    351       0.00000           0.140684            3.82822
    352       0.00000           0.145513            3.95961
    353       0.00000           0.146898            3.99731
    354       0.00000           0.153269            4.17067
    355       0.00000           0.155142            4.22164
    356       0.00000           0.156910            4.26975
    357       0.00000           0.157956            4.29820
    358       0.00000           0.162568            4.42371
    359       0.00000           0.168261            4.57861
    360       0.00000           0.171596            4.66936
    361       0.00000           0.174737            4.75484
    362       0.00000           0.176199            4.79462
    363       0.00000           0.178905            4.86826
    364       0.00000           0.182049            4.95380
    365       0.00000           0.182967            4.97878
    366       0.00000           0.193092            5.25431
    367       0.00000           0.195379            5.31654
    368       0.00000           0.197565            5.37601
    369       0.00000           0.198689            5.40659
    370       0.00000           0.201720            5.48908

  What follows are estimated values for band gap, HOMO, LUMO, etc.
  | They are estimated on a discrete k-point grid and not necessarily exact.
  | For converged numbers, create a DOS and/or band structure plot on a denser k-grid.

  Highest occupied state (VBM) at     -6.04187857 eV (relative to internal zero)
  | Occupation number:      2.00000000
  | K-point:       1 at    0.000000    0.000000    0.000000 (in units of recip. lattice)

  Lowest unoccupied state (CBM) at    -5.52463049 eV (relative to internal zero)
  | Occupation number:      0.00000000
  | K-point:       1 at    0.000000    0.000000    0.000000 (in units of recip. lattice)

  ESTIMATED overall HOMO-LUMO gap:      0.51724808 eV between HOMO at k-point 1 and LUMO at k-point 1
  | This appears to be a direct band gap.
  The gap value is above 0.2 eV. Unless you are using a very sparse k-point grid,
  this system is most likely an insulator or a semiconductor.

  Self-consistency cycle converged.

  End self-consistency iteration #    21       :  max(cpu_time)    wall_clock(cpu1)
  | Time for this iteration                    :       14.324 s          14.326 s
  | Charge density & force component update    :        9.397 s           9.397 s
  | Density mixing                             :        0.007 s           0.007 s
  | Hartree multipole update                   :        0.005 s           0.004 s
  | Hartree multipole summation                :        3.872 s           3.873 s
  | Integration                                :        0.669 s           0.669 s
  | Solution of K.-S. eqns.                    :        0.370 s           0.370 s
  | Total energy evaluation                    :        0.002 s           0.003 s

  Partial memory accounting:
  | Current value for overall tracked memory usage on task 0  :          13.236 MB
  | Peak value for overall tracked memory usage on task 0     :          26.754 MB after allocating wave_pulay
  | Largest tracked array allocation on task 0 so far         :           8.387 MB  when allocating kdm_complex
  Note:  These values currently only include a subset of arrays which are explicitly tracked.
  The "true" memory usage will be greater.
------------------------------------------------------------
  |------------------------------------------
  | Final ELSI Output
  |------------------------------------------
  | Number of basis functions :          724
  | Number of electrons       :        512.0
  | Number of states          :          370
  | Solver                    :         ELPA
  | Parallel mode             :  SINGLE_PROC
  | Matrix format             :  BLACS_DENSE
  |------------------------------------------
  | ELSI Project (c)  elsi-interchange.org
  |------------------------------------------
  Removing unitary transformations (pure translations, rotations) from forces on atoms.
  Atomic forces before filtering:
  | Net force on center of mass :   0.110792E-01 -0.110524E-01 -0.652801E-02 eV/A
  Atomic forces after filtering:
  | Net force on center of mass :   0.356812E-15  0.214087E-14 -0.713624E-15 eV/A

  Energy and forces in a compact form:
  | Total energy uncorrected      :         -0.314729994767300E+06 eV
  | Total energy corrected        :         -0.314729994767300E+06 eV  <-- do not rely on this value for anything but (periodic) metals
  | Electronic free energy        :         -0.314729994767300E+06 eV
  Total atomic forces (unitary forces cleaned) [eV/Ang]:
  |   1          0.294731269043461E+00          0.333763316085918E+00          0.482106396206798E-01
  |   2          0.116388739843915E+00         -0.416612132051941E+00          0.490871892821731E+00
  |   3         -0.199632960603130E+00          0.238652375849503E+00         -0.467706302792014E+00
  |   4         -0.400142475550893E+00         -0.273591404156851E+00         -0.138370645120497E-01
  |   5         -0.859095444996023E+00         -0.267722274117776E+01          0.543807199437874E+00
  |   6         -0.489458840799123E-01         -0.328378589507691E-01          0.880359362417171E-01
  |   7          0.394483452774612E+00          0.117689860391282E+00          0.133096004620781E+00
  |   8         -0.256723577697873E+01         -0.732758914605346E+00         -0.284512145779395E+01
  |   9          0.312218492146198E+00          0.107811253608827E+01          0.542133591236874E+00
  |  10          0.474777166599181E+00         -0.425860277118729E+00         -0.218569719828556E+00
  |  11          0.363774828207650E+01         -0.172999049311518E+01         -0.210627849597819E+00
  |  12         -0.777294921874113E+00          0.111462848641908E+00         -0.323370618304334E+00
  |  13          0.372692785511971E+00          0.772331413601334E+00         -0.202031162464041E+00
  |  14         -0.173484568128471E+00         -0.756707300024311E-02          0.365657611350598E+00
  |  15         -0.750355122326276E+00         -0.172997459566866E+01          0.874843670722901E+00
  |  16         -0.573406531897023E+00          0.235636928553658E+01          0.355407778025993E+01
  |  17          0.561021778997084E+01         -0.115856755791463E+01          0.513115906280859E+00
  |  18         -0.233620652012971E+01          0.229763488541524E+01         -0.413216007001324E+01
  |  19          0.108774475034266E+00          0.509122853484229E-01         -0.307183752627521E+00
  |  20          0.779400209385920E+00          0.827363239998697E+01          0.203745676832684E+01
  |  21         -0.289898870256791E+01          0.424189250077873E+01          0.431388231624541E+01
  |  22         -0.853732622571792E-01         -0.577535107624129E+00         -0.227252836099209E+01
  |  23          0.166245553965078E+00         -0.830722922195607E+00          0.157789722385249E+00
  |  24         -0.128439870236573E+01         -0.880392612653282E+01          0.103304368800363E+00
  |  25         -0.124062650747601E+00         -0.337259572027724E+00          0.406972868562715E+00
  |  26          0.425211931528777E-01         -0.429901331631929E+00         -0.584827520496915E+00
  |  27          0.266302359786380E+00         -0.885578278830618E+00         -0.101562999334948E+01
  |  28          0.404785265130050E+00         -0.894551313075450E+00         -0.278377040807038E+00
  |  29          0.257618665530603E+00         -0.388761211141189E-01          0.358373421195444E+00
  |  30         -0.512031595224312E-01         -0.612055822130614E+00          0.764381050118338E+00
  |  31          0.369370624815723E+00          0.177950397579242E+00          0.616405571993114E+00
  |  32         -0.250854007251703E+00          0.820077194679524E+00          0.816496448629262E+00
  |  33          0.918491637262310E-03          0.679628751304850E+00          0.146351346263324E+00
  |  34         -0.449418605156026E-01          0.101461225125624E+01          0.191022525457034E+00
  |  35         -0.272167917347276E+00         -0.165698560604762E+00         -0.455680424749450E+00
  |  36          0.171657747554322E+00          0.346954402414485E+00         -0.886562234916746E-01
  |  37         -0.948142311981121E-01          0.212970983115362E+01         -0.406134000755974E+01
  |  38         -0.163056764528647E+00         -0.274800127987745E+01         -0.680453116467013E+00
  |  39         -0.513315915618263E+00          0.166488266138354E+01          0.557223218510086E+00
  |  40         -0.445192296805691E+00         -0.235908014843669E+00          0.903827341935748E+00
  |  41         -0.509623866444376E+00          0.283526367398597E+00          0.810550743339245E-01
  |  42          0.717650931579233E-01         -0.298557390870347E+00         -0.716095519908720E+00
  |  43          0.730639432264487E-01         -0.616764854300681E+00         -0.364581290291051E+00
  |  44          0.663515372713325E+00          0.859500124885157E-01         -0.322020501634969E+00
  |  45         -0.937771658715444E-01         -0.197584379513966E+00          0.575097544461327E+00
  |  46         -0.268859063036714E+00          0.538686776723175E+00          0.277562198876953E+00
  |  47          0.124055230870247E+00         -0.256929830503601E+00         -0.150127766147703E+00
  |  48          0.107317756871595E+01         -0.499598400668340E+00          0.249873745140303E+00

  ------------------------------------ 
  Start decomposition of the XC Energy 
  ------------------------------------ 
  X and C from original XC functional choice 
  Hartree-Fock Energy :          0.000000000 Ha              0.000000000 eV
  X Energy            :       -745.433997390 Ha         -20284.291122359 eV
  C Energy            :        -19.345379343 Ha           -526.414555613 eV
  Total XC Energy     :       -764.779376734 Ha         -20810.705677971 eV
  ------------------------------------ 
  LDA X and C from self-consistent density 
  X Energy LDA        :       -690.075841859 Ha         -18777.919066993 eV
  C Energy LDA        :        -38.824826366 Ha          -1056.477278382 eV
  ------------------------------------ 
  End decomposition of the XC Energy 
  ------------------------------------ 

------------------------------------------------------------

------------------------------------------------------------------------------
  Final output of selected total energy values:

  The following output summarizes some interesting total energy values
  at the end of a run (AFTER all relaxation, molecular dynamics, etc.).

  | Total energy of the DFT / Hartree-Fock s.c.f. calculation      :        -314729.994767300 eV
  | Final zero-broadening corrected energy (caution - metals only) :        -314729.994767300 eV
  | For reference only, the value of 1 Hartree used in FHI-aims is :             27.211384500 eV

  Before relying on these values, please be sure to understand exactly which
  total energy value is referred to by a given number. Different objects may
  all carry the same name 'total energy'. Definitions:

  Total energy of the DFT / Hartree-Fock s.c.f. calculation:
  | Note that this energy does not include ANY quantities calculated after the
  | s.c.f. cycle, in particular not ANY RPA, MP2, etc. many-body perturbation terms.

  Final zero-broadening corrected energy:
  | For metallic systems only, a broadening of the occupation numbers at the Fermi
  | level can be extrapolated back to zero broadening by an electron-gas inspired
  | formula. For all systems that are not real metals, this value can be
  | meaningless and should be avoided.

------------------------------------------------------------------------------
  Methods described in the following list of references were used in this FHI-aims run.
  If you publish the results, please make sure to cite these reference if they apply.
  FHI-aims is an academic code, and for our developers (often, Ph.D. students
  and postdocs), scientific credit in the community is essential.
  Thank you for helping us!

  For any use of FHI-aims, please cite:

    Volker Blum, Ralf Gehrke, Felix Hanke, Paula Havu, Ville Havu,
    Xinguo Ren, Karsten Reuter, and Matthias Scheffler
    'Ab initio molecular simulations with numeric atom-centered orbitals'
    Computer Physics Communications 180, 2175-2196 (2009)
    http://dx.doi.org/10.1016/j.cpc.2009.06.022


  The provided symmetry information was generated with SPGlib:

    Atsushi Togo, Yusuke Seto, Dimitar Pashov
    SPGlib 1.7.3 obtained from http://spglib.sourceforge.net
    Copyright (C) 2008 Atsushi Togo


  The scalable eigensolver library ELPA was used in your run.
  ELPA is essential especially for large systems on hundreds or thousands of CPUs.
  For ELPA, please cite:

    Andreas Marek, Volker Blum, Rainer Johanni, Ville Havu, Bruno Lang,
    Thomas Auckenthaler, Alexander Heinecke, Hans-Joachim Bungartz, and Hermann Lederer,
    'The ELPA Library - Scalable Parallel Eigenvalue Solutions
    for Electronic Structure Theory and Computational Science'
    The Journal of Physics: Condensed Matter 26, 213201 (2014).
    http://dx.doi.org/10.1088/0953-8984/26/21/213201


  The ELSI infrastructure was used in your run to solve the Kohn-Sham electronic structure.
  Please check out http://elsi-interchange.org to learn more.
  If scalability is important for your project, please acknowledge ELSI by citing:

    V. W-z. Yu, F. Corsetti, A. Garcia, W. P. Huhn, M. Jacquelin, W. Jia,
    B. Lange, L. Lin, J. Lu, W. Mi, A. Seifitokaldani, A. Vazquez-Mayagoitia,
    C. Yang, H. Yang, and V. Blum
    'ELSI: A unified software interface for Kohn-Sham electronic structure solvers'
    Computer Physics Communications 222, 267-285 (2018).
    http://dx.doi.org/10.1016/j.cpc.2017.09.007


  For the real-space grid partitioning and parallelization used in this calculation, please cite:

    Ville Havu, Volker Blum, Paula Havu, and Matthias Scheffler,
    'Efficient O(N) integration for all-electron electronic structure calculation'
    'using numerically tabulated basis functions'
    Journal of Computational Physics 228, 8367-8379 (2009).
    http://dx.doi.org/10.1016/j.jcp.2009.08.008

  Of course, there are many other important community references, e.g., those cited in the
  above references. Our list is limited to references that describe implementations in the
  FHI-aims code. The reason is purely practical (length of this list) - please credit others as well.

 * A warning was issued further up regarding the CPU load.
   Some CPUs do not participate in the eigenvalue solution.
   In corner cases, this may be the correct behavior. Otherwise,
   consider using a scalapack/elpa version of the code for a parallel treatment.

------------------------------------------------------------
          Leaving FHI-aims.
          Date     :  20220723, Time     :  165911.541

          Computational steps:
          | Number of self-consistency cycles          :           21
          | Number of SCF (re)initializations          :            1

          Detailed time accounting                     :  max(cpu_time)    wall_clock(cpu1)
          | Total time                                 :      111.549 s         111.680 s
          | Preparation time                           :        0.444 s           0.446 s
          | Boundary condition initalization           :        0.247 s           0.248 s
          | Grid partitioning                          :        0.258 s           0.259 s
          | Preloading free-atom quantities on grid    :        0.009 s           0.008 s
          | Free-atom superposition energy             :        0.136 s           0.137 s
          | Total time for integrations                :       15.194 s          15.195 s
          | Total time for solution of K.-S. equations :        8.155 s           8.160 s
          | Total time for density & force components  :       30.877 s          30.877 s
          | Total time for mixing & preconditioning    :       21.342 s          21.344 s
          | Total time for Hartree multipole update    :        0.100 s           0.103 s
          | Total time for Hartree multipole sum       :       34.006 s          34.007 s
          | Total time for total energy evaluation     :        0.009 s           0.014 s

          Partial memory accounting:
          | Residual value for overall tracked memory usage across tasks :           0.000 MB (should be 0.000 MB)
          | Peak values for overall tracked memory usage (after allocating wave_pulay):
          |   Minimum:       26.172 MB (on task 18)
          |   Maximum:       51.086 MB (on task  2)
          |   Average:       43.809 MB
          | Largest tracked array allocation (kdm_complex):
          |   Minimum:        8.387 MB (on task  1)
          |   Maximum:        8.387 MB (on task  1)
          |   Average:        8.387 MB
          Note:  These values currently only include a subset of arrays which are explicitly tracked.
          The "true" memory usage will be greater.

          Have a nice day.
------------------------------------------------------------
