  MPI-parallelism will be employed.
------------------------------------------------------------
          Invoking FHI-aims ...
          Version 171221_1
          Compiled on 2020/09/23 at 19:46:43 on host login.service.

          When using FHI-aims, please cite the following reference:

          Volker Blum, Ralf Gehrke, Felix Hanke, Paula Havu,
          Ville Havu, Xinguo Ren, Karsten Reuter, and Matthias Scheffler,
          'Ab Initio Molecular Simulations with Numeric Atom-Centered Orbitals',
          Computer Physics Communications 180, 2175-2196 (2009)

          For any questions about FHI-aims, please visit the aimsclub website
          with its forums and wiki. Contributions to both the forums and the
          wiki are warmly encouraged - they are for you, and everyone is welcome there.

------------------------------------------------------------



  Date     :  20220704, Time     :  095642.983
  Time zero on CPU 1             :   0.824790000000000E-01  s.
  Internal wall clock time zero  :           426160602.983  s.

  FHI-aims created a unique identifier for this run for later identification
  aims_uuid : 82C8E2BD-BDED-47C9-A11F-A1CAAABFF226

  Using       20 parallel tasks.
  Task        0 on host node108 reporting.
  Task        1 on host node108 reporting.
  Task        2 on host node108 reporting.
  Task        3 on host node108 reporting.
  Task        4 on host node108 reporting.
  Task        5 on host node108 reporting.
  Task        6 on host node108 reporting.
  Task        7 on host node108 reporting.
  Task        8 on host node108 reporting.
  Task        9 on host node108 reporting.
  Task       10 on host node108 reporting.
  Task       11 on host node108 reporting.
  Task       12 on host node108 reporting.
  Task       13 on host node108 reporting.
  Task       14 on host node108 reporting.
  Task       15 on host node108 reporting.
  Task       16 on host node108 reporting.
  Task       17 on host node108 reporting.
  Task       18 on host node108 reporting.
  Task       19 on host node108 reporting.

  Performing system and environment tests:
  *** Environment variable OMP_NUM_THREADS is not set
  *** For performance reasons you might want to set it to 1
  | Maximum stacksize for task 0: unlimited
  | Maximum stacksize for task 1: unlimited
  | Maximum stacksize for task 2: unlimited
  | Maximum stacksize for task 3: unlimited
  | Maximum stacksize for task 4: unlimited
  | Maximum stacksize for task 5: unlimited
  | Maximum stacksize for task 6: unlimited
  | Maximum stacksize for task 7: unlimited
  | Maximum stacksize for task 8: unlimited
  | Maximum stacksize for task 9: unlimited
  | Maximum stacksize for task 10: unlimited
  | Maximum stacksize for task 11: unlimited
  | Maximum stacksize for task 12: unlimited
  | Maximum stacksize for task 13: unlimited
  | Maximum stacksize for task 14: unlimited
  | Maximum stacksize for task 15: unlimited
  | Maximum stacksize for task 16: unlimited
  | Maximum stacksize for task 17: unlimited
  | Maximum stacksize for task 18: unlimited
  | Maximum stacksize for task 19: unlimited
  | Current stacksize for task 0: unlimited
  | Current stacksize for task 1: unlimited
  | Current stacksize for task 2: unlimited
  | Current stacksize for task 3: unlimited
  | Current stacksize for task 4: unlimited
  | Current stacksize for task 5: unlimited
  | Current stacksize for task 6: unlimited
  | Current stacksize for task 7: unlimited
  | Current stacksize for task 8: unlimited
  | Current stacksize for task 9: unlimited
  | Current stacksize for task 10: unlimited
  | Current stacksize for task 11: unlimited
  | Current stacksize for task 12: unlimited
  | Current stacksize for task 13: unlimited
  | Current stacksize for task 14: unlimited
  | Current stacksize for task 15: unlimited
  | Current stacksize for task 16: unlimited
  | Current stacksize for task 17: unlimited
  | Current stacksize for task 18: unlimited
  | Current stacksize for task 19: unlimited
  | Checking for scalapack...
  | Testing pdtran()...
  | All pdtran() tests passed.

  Obtaining array dimensions for all initial allocations:
  
  -----------------------------------------------------------------------
  Parsing control.in (first pass over file, find array dimensions only).
  The contents of control.in will be repeated verbatim below
  unless switched off by setting 'verbatim_writeout .false.' .
  in the first line of control.in .
  -----------------------------------------------------------------------
  
  #===============================================================================
  # FHI-aims file: ./control.in
  # Created using the Atomic Simulation Environment (ASE)
  # Wed Mar 24 12:41:28 2021
  #===============================================================================
  xc                                 pbe
  sc_accuracy_etot                   1e-06
  sc_accuracy_eev                    0.001
  sc_accuracy_rho                    1e-06
  sc_accuracy_forces                 0.0001
  friction_temperature               300  # default 300
  
    k_grid                           1  1  2
  
  
  
  ################################################################################
  #
  #  FHI-aims code project
  # Volker Blum, Fritz Haber Institute Berlin, 2009
  #
  #  Suggested "tight" defaults for Li atom (to be pasted into control.in file)
  #
  #  2016/03/22: Increased cutoff radius to 5.0 AA (Xinguo Ren, Aug 15, 2015)
  #
  ################################################################################
    species        Li
  #     global species definitions
      nucleus             3
      mass                6.941
  #
      l_hartree           6
  #
      cut_pot             5.0  2.0  1.0
      basis_dep_cutoff    1e-4
  #
      radial_base         29 7.0
      radial_multiplier   2
      angular_grids       specified
        division   0.4484  110
        division   0.5659  194
        division   0.6315  302
        division   0.6662  434
  #      division   0.8186  590
  #      division   0.9037  770
  #      division   6.2760  974
  #      outer_grid   974
        outer_grid  434
  ################################################################################
  #
  #  Definition of "minimal" basis
  #
  ################################################################################
  #     valence basis states
      valence      2  s   1.
  #     ion occupancy
      ion_occ      1  s   2.
  ################################################################################
  #
  #  Suggested additional basis functions. For production calculations,
  #  uncomment them one after another (the most important basis functions are
  #  listed first).
  #
  #  Constructed for dimers: 1.80 A, 2.25 A, 2.75 A, 3.50 A, 4.50 A
  #
  ################################################################################
  #  "First tier" - improvements: -189.23 meV to -6.35 meV
       hydro 2 p 1.6
       hydro 2 s 2
       hydro 3 d 2.6
  #  "Second tier" - improvements: -4.69 meV to -0.41 meV
       hydro 3 p 4.6
       hydro 2 p 1.8
       hydro 3 s 6.2
       hydro 4 d 4.7
       hydro 4 f 4.1
  #  "Third tier" - improvements: -0.20 meV to -0.15 meV
  #     hydro 4 d 0.95
  #     hydro 3 p 6.2
  #     hydro 3 s 1.7
  #  Further functions, listed for completeness
  #     VB: The following functions are only listed for completeness; test very
  #         carefully before any kind of production use. From the point of view
  #         of the basis construction, their main role is to fill up space,
  #         and they are solely determined by the location of the cutoff potential.
  #     hydro 3 p 0.1  # -0.15 meV
  #     hydro 4 d 5    # -0.12 meV
  #     hydro 4 f 0.1  # -0.14 meV
  #     hydro 5 g 0.1  # -0.06 meV
  
  
  ################################################################################
  #
  # For methods that use the localized form of the "resolution of identity" for
  # the two-electron Coulomb operator (RI_method LVL), particularly Hartree-Fock and
  # hybrid density functional calculations, the highest accuracy can be obtained by
  # uncommenting the line beginning with "for_aux"  below, thus adding an extra g radial
  # function to the construction of the product basis set for the expansion.
  # See Ref. New J. Phys. 17, 093020 (2015) for more information, particularly Figs. 1 and 6.
  #
  ################################################################################
  #
  # for_aux hydro 5 g 6.0
  ################################################################################
  #
  #  FHI-aims code project
  # Volker Blum, Fritz Haber Institute Berlin, 2010
  #
  #  Suggested "tight" defaults for P atom (to be pasted into control.in file)
  #
  #  Revised Jan 04, 2011, following tests (SiC) done by Lydia Nemec:
  #     d function of tier 2 now enabled by default.
  #
  ################################################################################
    species        P
  #     global species definitions
      nucleus             15
      mass                30.973762
  #
      l_hartree           6
  #
      cut_pot             4.0          2.0  1.0
      basis_dep_cutoff    1e-4
  #
      radial_base         43 7.0
      radial_multiplier   2
      angular_grids       specified
        division   0.2995   50
        division   0.5998  110
        division   0.9240  194
        division   1.0921  302
        division   1.2863  434
  #      division   1.3165  590
  #      division   1.4113  770
  #      division   1.5128  974
  #      division   2.4980 1202
        outer_grid  434
  ################################################################################
  #
  #  Definition of "minimal" basis
  #
  ################################################################################
  #     valence basis states
      valence      3  s   2.
      valence      3  p   3.
  #     ion occupancy
      ion_occ      3  s   1.
      ion_occ      3  p   2.
  ################################################################################
  #
  #  Suggested additional basis functions. For production calculations,
  #  uncomment them one after another (the most important basis functions are
  #  listed first).
  #
  #  Constructed for dimers: 1.625 A, 1.875 A, 2.5 A, 3.25 A, 4.0 A
  #
  ################################################################################
  #  "First tier" - improvements: -726.20 meV to -35.91 meV
       ionic 3 d auto
       ionic 3 p auto
       hydro 4 f 6.2
       hydro 5 g 8.6
       ionic 3 s auto
  #  "Second tier" - improvements: -16.02 meV to -1.71 meV
       hydro 4 d 6.2
  #     hydro 4 p 9.2
  #     hydro 5 f 9.8
  #     hydro 1 s 0.7
  #     hydro 5 g 13.2
  #  "Third tier" - improvements: -1.82 meV to -0.20 meV
  #     hydro 3 p 2.5
  #     hydro 4 d 6.4
  #     hydro 5 f 11.2
  #     hydro 2 s 1.5
  #  "Fourth tier" - improvements: -0.91 meV to -0.17 meV
  #     hydro 3 d 16.8
  #     hydro 5 g 18
  #     hydro 4 p 4.5
  #     hydro 3 s 2.1
  #  Further basis functions that fell out of the optimization - < -0.09 meV
  #     hydro 4 p 10.4
  #     hydro 4 d 17.6
  #     hydro 4 s 11.2
  ################################################################################
  #
  # For methods that use the localized form of the "resolution of identity" for
  # the two-electron Coulomb operator (RI_method LVL), particularly Hartree-Fock and
  # hybrid density functional calculations, the highest accuracy can be obtained by
  # uncommenting the line beginning with "for_aux"  below, thus adding an extra g radial
  # function to the construction of the product basis set for the expansion.
  # See Ref. New J. Phys. 17, 093020 (2015) for more information, particularly Figs. 1 and 6.
  #
  ################################################################################
  #
  # for_aux hydro 5 g 6.0
  ################################################################################
  #
  #  FHI-aims code project
  # Volker Blum, Fritz Haber Institute Berlin, 2009
  #
  #  Suggested "tight" defaults for S atom (to be pasted into control.in file)
  #
  #  Revised Jan 04, 2011, following tests (SiC) done by Lydia Nemec:
  #     d and g functions of tier 2 now enabled by default.
  #
  ################################################################################
    species        S
  #     global species definitions
      nucleus             16
      mass                32.065
  #
      l_hartree           6
  #
      cut_pot             4.0          2.0  1.0
      basis_dep_cutoff    1e-4
  #
      radial_base         44 7.0
      radial_multiplier   2
      angular_grids       specified
        division   0.4665  110
        division   0.5810  194
        division   0.7139  302
        division   0.8274  434
  #      division   0.9105  590
  #      division   1.0975  770
  #      division   1.2028  974
  #      outer_grid  974
        outer_grid  434
  ################################################################################
  #
  #  Definition of "minimal" basis
  #
  ################################################################################
  #     valence basis states
      valence      3  s   2.
      valence      3  p   4.
  #     ion occupancy
      ion_occ      3  s   1.
      ion_occ      3  p   3.
  ################################################################################
  #
  #  Suggested additional basis functions. For production calculations,
  #  uncomment them one after another (the most important basis functions are
  #  listed first).
  #
  #  Constructed for dimers: 1.6 A, 1.9 A, 2.5 A, 3.25 A, 4.0 A
  #
  ################################################################################
  #  "First tier" - improvements: -652.81 meV to -45.53 meV
       ionic 3 d auto
       hydro 2 p 1.8
       hydro 4 f 7
       ionic 3 s auto
  #  "Second tier" - improvements: -30.20 meV to -1.74 meV
       hydro 4 d 6.2
       hydro 5 g 10.8
  #     hydro 4 p 4.9
  #     hydro 5 f 10
  #     hydro 1 s 0.8
  #  "Third tier" - improvements: -1.04 meV to -0.20 meV
  #     hydro 3 d 3.9
  #     hydro 3 d 2.7
  #     hydro 5 g 12
  #     hydro 4 p 10.4
  #     hydro 5 f 12.4
  #     hydro 2 s 1.9
  #  "Fourth tier" - improvements: -0.35 meV to -0.06 meV
  #     hydro 4 d 10.4
  #     hydro 4 p 7.2
  #     hydro 4 d 10
  #     hydro 5 g 19.2
  #     hydro 4 s 12
  
  ################################################################################
  #
  # For methods that use the localized form of the "resolution of identity" for
  # the two-electron Coulomb operator (RI_method LVL), particularly Hartree-Fock and
  # hybrid density functional calculations, the highest accuracy can be obtained by
  # uncommenting the line beginning with "for_aux"  below, thus adding an extra g radial
  # function to the construction of the product basis set for the expansion.
  # See Ref. New J. Phys. 17, 093020 (2015) for more information, particularly Figs. 1 and 6.
  #
  ################################################################################
  #
  # for_aux hydro 5 g 6.0
  ################################################################################
  #
  #  FHI-aims code project
  # Volker Blum, Fritz Haber Institute Berlin, 2009
  #
  #  Suggested "tight" defaults for Cl atom (to be pasted into control.in file)
  #
  #  Revised Jan 04, 2011, following tests (SiC) done by Lydia Nemec:
  #     d function of tier 2 now enabled by default.
  #
  ################################################################################
    species        Cl
  #     global species definitions
      nucleus             17
      mass                35.453
  #
      l_hartree           6
  #
      cut_pot             4.0          2.0  1.0
      basis_dep_cutoff    1e-4
  #
      radial_base         45 7.0
      radial_multiplier   2
      angular_grids       specified
        division   0.4412  110
        division   0.5489  194
        division   0.6734  302
        division   0.7794  434
  #      division   0.9402  590
  #      division   1.0779  770
  #      division   1.1792  974
  #      outer_grid  974
        outer_grid  434
  ################################################################################
  #
  #  Definition of "minimal" basis
  #
  ################################################################################
  #     valence basis states
      valence      3  s   2.
      valence      3  p   5.
  #     ion occupancy
      ion_occ      3  s   1.
      ion_occ      3  p   4.
  ################################################################################
  #
  #  Suggested additional basis functions. For production calculations,
  #  uncomment them one after another (the most important basis functions are
  #  listed first).
  #
  #  Constructed for dimers: 1.65 A, 2.0 A, 2.5 A, 3.25 A, 4.0 A
  #
  ################################################################################
  #  "First tier" - improvements: -429.57 meV to -15.03 meV
       ionic 3 d auto
       hydro 2 p 1.9
       hydro 4 f 7.4
       ionic 3 s auto
       hydro 5 g 10.4
  #  "Second tier" - improvements: -7.84 meV to -0.48 meV
       hydro 3 d 3.3
  #     hydro 5 f 9.8
  #     hydro 1 s 0.75
  #     hydro 5 g 11.2
  #     hydro 4 p 10.4
  #  "Third tier" - improvements: -1.00 meV to -0.12 meV
  #     hydro 4 d 12.8
  #     hydro 4 f 4.6
  #     hydro 4 d 10.8
  #     hydro 2 s 1.8
  #     hydro 3 p 3
  #  Further functions that fell out - improvements: -0.10 meV and below
  #     hydro 5 f 14.4
  #     hydro 4 s 12.8
  #     hydro 3 d 11.6
  #     hydro 4 s 4.1
  ################################################################################
  #
  # For methods that use the localized form of the "resolution of identity" for
  # the two-electron Coulomb operator (RI_method LVL), particularly Hartree-Fock and
  # hybrid density functional calculations, the highest accuracy can be obtained by
  # uncommenting the line beginning with "for_aux"  below, thus adding an extra g radial
  # function to the construction of the product basis set for the expansion.
  # See Ref. New J. Phys. 17, 093020 (2015) for more information, particularly Figs. 1 and 6.
  #
  ################################################################################
  #
  # for_aux hydro 5 g 6.0
  
  -----------------------------------------------------------------------
  Completed first pass over input file control.in .
  -----------------------------------------------------------------------
  
  
  -----------------------------------------------------------------------
  Parsing geometry.in (first pass over file, find array dimensions only).
  The contents of geometry.in will be repeated verbatim below
  unless switched off by setting 'verbatim_writeout .false.' .
  in the first line of geometry.in .
  -----------------------------------------------------------------------
  
  #=======================================================
  # FHI-aims file: ./data/test_rep/geometry.in.5
  # Created using the Atomic Simulation Environment (ASE)
  # Mon Jul  4 10:21:46 2022
  #=======================================================
  lattice_vector 19.8004550934000001 0.0000000000000000 0.0000000000000000
  lattice_vector 0.0000000000000000 16.4372653960999990 0.0000000000000000
  lattice_vector 0.0000000000000000 0.0000000000000000 7.5991740226999998
  atom 2.7328926220000000 2.4327037979999999 4.7096068449999997 Li
  atom 1.7677721270000000 8.2482687739999996 4.2747102249999998 Li
  atom 9.0644636589999994 3.7177226719999998 2.8638722259999998 Li
  atom 6.9155329569999999 1.4111465889999999 6.4044821140000003 Li
  atom 8.1388742270000005 0.9375798170000000 3.1037375169999999 Li
  atom 6.7619424380000002 6.0084946129999999 3.4984992660000001 Li
  atom 12.6688412550000002 2.4263396689999999 2.6191556569999999 Li
  atom 12.0795867309999991 8.5585574760000007 4.4257985389999996 Li
  atom 19.4337141260000017 4.6540625709999999 4.3007962949999996 Li
  atom 14.0834196249999994 2.9401097790000001 6.3709695410000000 Li
  atom 18.0172698609999991 1.0490895440000001 4.6347412009999998 Li
  atom 16.0635812659999999 7.3143542149999998 5.4007857860000001 Li
  atom 3.4848611940000001 11.1697133320000006 4.6494506250000001 Li
  atom 1.3715699980000000 16.3734590199999985 4.3424224919999999 Li
  atom 9.2162207390000006 12.4836440100000008 4.0858353379999999 Li
  atom 6.6450502089999999 8.8480718260000000 4.7795263180000003 Li
  atom 8.3709509369999999 9.2047922419999999 2.2415016809999999 Li
  atom 6.6047835859999999 14.5571533120000005 4.6393961279999996 Li
  atom 12.5812374360000003 11.1399146200000008 2.6372347729999999 Li
  atom 11.4611329019999992 16.3392965580000009 3.4866816759999999 Li
  atom 0.1667832280000000 12.8941343719999999 4.4614123299999999 Li
  atom 16.3520856549999998 10.4450349140000007 6.3441306739999996 Li
  atom 18.4725670670000000 8.8766272520000005 3.2700421010000000 Li
  atom 16.6409511849999987 15.0994173689999993 5.2717727050000001 Li
  atom 9.1793648920000006 7.2141339410000000 4.5197246059999996 P
  atom 4.7174617159999999 0.6490251800000000 3.4075848369999999 P
  atom 19.2595061190000010 8.0017511769999992 6.3930375259999996 P
  atom 14.9681133870000007 1.1567140610000000 2.9402353099999998 P
  atom 9.3094771210000005 15.7255498829999993 5.3113814799999997 P
  atom 4.4570466560000002 8.5480301979999993 2.7609642390000002 P
  atom 19.2686396789999996 16.0710856170000014 6.5203044999999999 P
  atom 14.8543303929999997 8.9658872039999995 3.3179957280000001 P
  atom 1.2077003870000000 0.7380647530000000 6.7621926480000001 S
  atom 2.9279397000000000 0.4169715690000000 2.5213054910000001 S
  atom 5.5024481290000002 2.6178322760000001 2.3116589510000001 S
  atom 9.0428494920000002 6.1955401920000002 2.6468619150000001 S
  atom 7.8438693019999999 15.5057693190000006 6.6652834780000001 S
  atom 6.2418841670000003 7.7258091279999999 2.2563186800000001 S
  atom 10.8967510740000009 6.5072651889999999 5.5180888530000001 S
  atom 4.5881602839999998 1.2409891099999999 5.4098623730000002 S
  atom 0.3747209200000000 2.6535512959999998 2.2793093160000000 S
  atom 1.2748641890000001 4.5942260910000003 2.3883257350000000 S
  atom 7.2102587659999999 2.2071351909999999 1.3243456819999999 S
  atom 7.7105758460000002 3.0462484019999998 4.7820782160000004 S
  atom 11.1990508099999992 4.6699960389999999 4.4392492250000002 S
  atom 6.0618731199999996 3.8734002450000000 4.1483106420000002 S
  atom 3.1147693470000002 4.5273222759999996 3.3795660459999999 S
  atom 2.9919454380000001 5.7907078140000001 5.1756167839999998 S
  atom 0.3905602240000000 2.2157877410000002 4.2492763970000000 S
  atom 2.2627316940000002 4.6785731500000001 6.6565814779999997 S
  atom 9.9223928659999991 1.2097536129999999 5.1231792179999998 S
  atom 14.0668390080000005 1.0435688460000001 1.1428616290000000 S
  atom 15.9483832129999996 3.1794444319999999 3.0031769220000002 S
  atom 19.1500591759999992 7.0215352099999997 4.4590855459999998 S
  atom 17.5623916260000001 0.5406151590000000 6.9957465880000003 S
  atom 16.1790330619999985 7.5736284820000002 2.9236382339999998 S
  atom 19.3671213930000015 6.4498550280000000 0.1810225150000000 S
  atom 13.5153980629999992 1.2792757760000000 4.4425579959999997 S
  atom 10.2941756430000009 1.6956252119999999 0.3707733570000000 S
  atom 10.1234928899999996 3.6592330860000000 0.1119509070000000 S
  atom 17.2461112509999985 3.3590280859999999 4.5497934310000003 S
  atom 16.3005817670000006 4.0318955430000001 6.4767025530000000 S
  atom 0.1575419370000000 4.7354341680000003 6.7112054150000002 S
  atom 14.8957046329999994 5.2765313579999997 6.0765763379999997 S
  atom 12.1528039220000004 4.3769610019999998 7.5924504910000001 S
  atom 12.5806154709999998 5.7849836979999996 1.6015048530000000 S
  atom 10.3990327919999999 1.6803142440000001 2.4380023679999998 S
  atom 12.9743145460000004 4.9346417169999999 3.3397835659999999 S
  atom 1.0827591999999999 9.2515727410000004 6.6170601219999998 S
  atom 2.7898139190000002 7.7126586030000004 1.8946384130000000 S
  atom 4.6985708600000002 10.5474321639999999 2.0655541020000001 S
  atom 8.9534263969999994 14.6406955169999993 3.4865315250000002 S
  atom 7.5621410259999999 6.9764158549999999 5.7165584970000003 S
  atom 6.1165924609999998 15.8211987030000003 2.7908407880000001 S
  atom 11.2439904310000003 15.2057570830000000 5.9905568970000003 S
  atom 4.2573012050000001 8.9215364529999999 4.8133251540000002 S
  atom 1.2846260580000000 11.1131726880000006 2.0339452599999999 S
  atom 1.6441260609999999 13.1739385450000004 2.4326918019999999 S
  atom 6.6686836950000004 11.1991514999999993 2.3222422620000001 S
  atom 7.0177948480000003 11.3438978979999998 4.4504161580000003 S
  atom 11.1283887499999992 13.1223994610000005 5.5881446629999996 S
  atom 5.6380630360000001 12.5007512050000003 5.4293743829999999 S
  atom 3.4422958389999998 13.3771850620000006 3.5656770560000002 S
  atom 3.0333120060000001 14.5968865599999997 5.3252751470000002 S
  atom 0.8978668500000000 10.5017999169999996 3.9377844799999999 S
  atom 2.5627501050000001 13.4780274690000006 6.8961944780000000 S
  atom 9.7301148299999998 9.2114681720000000 4.5020166799999997 S
  atom 13.1192984639999999 8.8536788630000007 2.2638654410000001 S
  atom 15.6064004629999999 10.8339788909999992 2.5750674720000002 S
  atom 19.0788483229999990 15.0838875520000002 4.5815721270000003 S
  atom 17.5032931560000016 8.6648178310000006 7.1766201829999998 S
  atom 16.3471465219999992 16.2572592299999990 3.1249691369999999 S
  atom 19.2674571199999995 14.5357323340000004 0.2958784410000000 S
  atom 14.3467716109999994 9.1875616000000004 5.3252108290000004 S
  atom 10.4615963260000004 12.3011013039999995 0.8346972240000000 S
  atom 11.5925917379999994 14.0204149729999994 1.4721179780000000 S
  atom 17.5960190390000015 11.0681468980000002 2.7930643000000002 S
  atom 17.8454364140000017 11.7090313179999992 4.9953732369999999 S
  atom 0.4872681350000000 13.0224701690000000 6.8870694260000000 S
  atom 16.2541975819999998 12.7089934020000008 5.7220486560000001 S
  atom 13.5310652059999992 13.3768588089999998 1.7430928500000000 S
  atom 13.8743001479999997 14.0496571939999999 3.7506828770000000 S
  atom 10.2048676179999998 11.0631130080000002 2.3638541910000002 S
  atom 13.1113214980000006 12.6589454779999997 4.9563224920000000 S
  
  -----------------------------------------------------------------------
  Completed first pass over input file geometry.in .
  -----------------------------------------------------------------------
  

  Basic array size parameters:
  | Number of species                 :        4
  | Number of atoms                   :      104
  | Number of lattice vectors         :        3
  | Max. basis fn. angular momentum   :        4
  | Max. atomic/ionic basis occupied n:        3
  | Max. number of basis fn. types    :        3
  | Max. radial fns per species/type  :        8
  | Max. logarithmic grid size        :     1362
  | Max. radial integration grid size :       91
  | Max. angular integration grid size:      434
  | Max. angular grid division number :        8
  | Radial grid for Hartree potential :     1362
  | Number of spin channels           :        1

------------------------------------------------------------
          Reading file control.in.
------------------------------------------------------------
  XC: Using PBE gradient-corrected functionals.
  Convergence accuracy of total energy:  0.1000E-05
  Convergence accuracy of sum of eigenvalues:  0.1000E-02
  Convergence accuracy of self-consistent charge density:  0.1000E-05
  Convergence accuracy of forces:  0.1000E-03
  Friction is calculated at temperature of   0.3000E+03 K
  Found k-point grid:         1         1         2
 
  Reading configuration options for species Li                  .
  | Found nuclear charge :   3.0000
  | Found atomic mass :    6.94100000000000      amu
  | Found l_max for Hartree potential  :   6
  | Found cutoff potl. onset [A], width [A], scale factor :    5.00000    2.00000    1.00000
  | Threshold for basis-dependent cutoff potential is   0.100000E-03
  | Found data for basic radial integration grid :    29 points, outermost radius =    7.000 A
  | Found multiplier for basic radial grid :   2
  | Found angular grid specification: user-specified.
  | Specified grid contains     5 separate shells.
  | Check grid settings after all constraints further below.
  | Found free-atom valence shell :  2 s   1.000
  | Found free-ion valence shell :  1 s   2.000
  | Found hydrogenic basis function :  2 p   1.600
  | Found hydrogenic basis function :  2 s   2.000
  | Found hydrogenic basis function :  3 d   2.600
  | Found hydrogenic basis function :  3 p   4.600
  | Found hydrogenic basis function :  2 p   1.800
  | Found hydrogenic basis function :  3 s   6.200
  | Found hydrogenic basis function :  4 d   4.700
  | Found hydrogenic basis function :  4 f   4.100
  Species Li                  : Missing cutoff potential type.
  Defaulting to exp(1/x)/(1-x)^2 type cutoff potential.
  Species Li: No 'logarithmic' tag. Using default grid for free atom:
  | Default logarithmic grid data [bohr] : 0.1000E-03 0.1000E+03 0.1012E+01
  Species Li: On-site basis accuracy parameter (for Gram-Schmidt orthonormalisation) not specified.
  Using default value basis_acc =  0.1000000E-03.
  Species Li                  : Using default innermost maximum threshold i_radial=  2 for radial functions.
  Species Li                  : Default cutoff onset for free atom density etc. : 0.50000000E+01 AA.
  Species Li                  : Basic radial grid will be enhanced according to radial_multiplier =   2, to contain    59 grid points.
 
  Reading configuration options for species P                   .
  | Found nuclear charge :  15.0000
  | Found atomic mass :    30.9737620000000      amu
  | Found l_max for Hartree potential  :   6
  | Found cutoff potl. onset [A], width [A], scale factor :    4.00000    2.00000    1.00000
  | Threshold for basis-dependent cutoff potential is   0.100000E-03
  | Found data for basic radial integration grid :    43 points, outermost radius =    7.000 A
  | Found multiplier for basic radial grid :   2
  | Found angular grid specification: user-specified.
  | Specified grid contains     6 separate shells.
  | Check grid settings after all constraints further below.
  | Found free-atom valence shell :  3 s   2.000
  | Found free-atom valence shell :  3 p   3.000
  | Found free-ion valence shell :  3 s   1.000
  | Found free-ion valence shell :  3 p   2.000
  | Found ionic basis function :  3 d , default cutoff radius.
  | Found ionic basis function :  3 p , default cutoff radius.
  | Found hydrogenic basis function :  4 f   6.200
  | Found hydrogenic basis function :  5 g   8.600
  | Found ionic basis function :  3 s , default cutoff radius.
  | Found hydrogenic basis function :  4 d   6.200
  Species P                   : Missing cutoff potential type.
  Defaulting to exp(1/x)/(1-x)^2 type cutoff potential.
  Species P : No 'logarithmic' tag. Using default grid for free atom:
  | Default logarithmic grid data [bohr] : 0.1000E-03 0.1000E+03 0.1012E+01
  | Will include ionic basis functions of  2.0-fold positive P                    ion.
  Species P : On-site basis accuracy parameter (for Gram-Schmidt orthonormalisation) not specified.
  Using default value basis_acc =  0.1000000E-03.
  Species P                   : Using default innermost maximum threshold i_radial=  2 for radial functions.
  Species P                   : Default cutoff onset for free atom density etc. : 0.40000000E+01 AA.
  Species P                   : Basic radial grid will be enhanced according to radial_multiplier =   2, to contain    87 grid points.
 
  Reading configuration options for species S                   .
  | Found nuclear charge :  16.0000
  | Found atomic mass :    32.0650000000000      amu
  | Found l_max for Hartree potential  :   6
  | Found cutoff potl. onset [A], width [A], scale factor :    4.00000    2.00000    1.00000
  | Threshold for basis-dependent cutoff potential is   0.100000E-03
  | Found data for basic radial integration grid :    44 points, outermost radius =    7.000 A
  | Found multiplier for basic radial grid :   2
  | Found angular grid specification: user-specified.
  | Specified grid contains     5 separate shells.
  | Check grid settings after all constraints further below.
  | Found free-atom valence shell :  3 s   2.000
  | Found free-atom valence shell :  3 p   4.000
  | Found free-ion valence shell :  3 s   1.000
  | Found free-ion valence shell :  3 p   3.000
  | Found ionic basis function :  3 d , default cutoff radius.
  | Found hydrogenic basis function :  2 p   1.800
  | Found hydrogenic basis function :  4 f   7.000
  | Found ionic basis function :  3 s , default cutoff radius.
  | Found hydrogenic basis function :  4 d   6.200
  | Found hydrogenic basis function :  5 g  10.800
  Species S                   : Missing cutoff potential type.
  Defaulting to exp(1/x)/(1-x)^2 type cutoff potential.
  Species S : No 'logarithmic' tag. Using default grid for free atom:
  | Default logarithmic grid data [bohr] : 0.1000E-03 0.1000E+03 0.1012E+01
  | Will include ionic basis functions of  2.0-fold positive S                    ion.
  Species S : On-site basis accuracy parameter (for Gram-Schmidt orthonormalisation) not specified.
  Using default value basis_acc =  0.1000000E-03.
  Species S                   : Using default innermost maximum threshold i_radial=  2 for radial functions.
  Species S                   : Default cutoff onset for free atom density etc. : 0.40000000E+01 AA.
  Species S                   : Basic radial grid will be enhanced according to radial_multiplier =   2, to contain    89 grid points.
 
  Reading configuration options for species Cl                  .
  | Found nuclear charge :  17.0000
  | Found atomic mass :    35.4530000000000      amu
  | Found l_max for Hartree potential  :   6
  | Found cutoff potl. onset [A], width [A], scale factor :    4.00000    2.00000    1.00000
  | Threshold for basis-dependent cutoff potential is   0.100000E-03
  | Found data for basic radial integration grid :    45 points, outermost radius =    7.000 A
  | Found multiplier for basic radial grid :   2
  | Found angular grid specification: user-specified.
  | Specified grid contains     5 separate shells.
  | Check grid settings after all constraints further below.
  | Found free-atom valence shell :  3 s   2.000
  | Found free-atom valence shell :  3 p   5.000
  | Found free-ion valence shell :  3 s   1.000
  | Found free-ion valence shell :  3 p   4.000
  | Found ionic basis function :  3 d , default cutoff radius.
  | Found hydrogenic basis function :  2 p   1.900
  | Found hydrogenic basis function :  4 f   7.400
  | Found ionic basis function :  3 s , default cutoff radius.
  | Found hydrogenic basis function :  5 g  10.400
  | Found hydrogenic basis function :  3 d   3.300
  Species Cl                  : Missing cutoff potential type.
  Defaulting to exp(1/x)/(1-x)^2 type cutoff potential.
  Species Cl: No 'logarithmic' tag. Using default grid for free atom:
  | Default logarithmic grid data [bohr] : 0.1000E-03 0.1000E+03 0.1012E+01
  | Will include ionic basis functions of  2.0-fold positive Cl                   ion.
  Species Cl: On-site basis accuracy parameter (for Gram-Schmidt orthonormalisation) not specified.
  Using default value basis_acc =  0.1000000E-03.
  Species Cl                  : Using default innermost maximum threshold i_radial=  2 for radial functions.
  Species Cl                  : Default cutoff onset for free atom density etc. : 0.40000000E+01 AA.
  Species Cl                  : Basic radial grid will be enhanced according to radial_multiplier =   2, to contain    91 grid points.
 
  Finished reading input file 'control.in'. Consistency checks are next.
 
  MPI_IN_PLACE appears to work with this MPI implementation.
  | Keeping use_mpi_in_place .true. (see manual).
  Target number of points in a grid batch is not set. Defaulting to  100
  Method for grid partitioning is not set. Defaulting to parallel hash+maxmin partitioning.
  Batch size limit is not set. Defaulting to    200
  By default, will store active basis functions for each batch.
  If in need of memory, prune_basis_once .false. can be used to disable this option.
  communication_type for Hartree potential was not specified.
  Defaulting to calc_hartree .
  Defaulting to Pulay charge density mixer.
  Pulay mixer: Number of relevant iterations not set.
  Defaulting to    8 iterations.
  Pulay mixer: Number of initial linear mixing iterations not set.
  Defaulting to    0 iterations.
  Work space size for distributed Hartree potential not set.
  Defaulting to   0.200000E+03 MB.
  Mixing parameter for charge density mixing has not been set.
  Using default: charge_mix_param =     0.0500.
  The mixing parameter will be adjusted in iteration number     2 of the first full s.c.f. cycle only.
  Algorithm-dependent basis array size parameters:
  | n_max_pulay                         :        8
  Maximum number of self-consistency iterations not provided.
  Presetting  1000 iterations.
  Presetting      1001 iterations before the initial mixing cycle
  is restarted anyway using the sc_init_iter criterion / keyword.
  Presetting a factor      1.000 between actual scf density residual
  and density convergence criterion sc_accuracy_rho below which sc_init_iter
  takes no effect.
  Geometry relaxation not requested: no relaxation will be performed.
  Handling of forces: Unphysical translation and rotation will be removed from forces.
  No accuracy limit for integral partition fn. given. Defaulting to  0.1000E-14.
  No threshold value for u(r) in integrations given. Defaulting to  0.1000E-05.
  No occupation type (smearing scheme) given. Defaulting to Gaussian broadening, width =  0.1000E-01 eV.
  The width will be adjusted in iteration number     2 of the first full s.c.f. cycle only.
  S.C.F. convergence parameters will be adjusted in iteration number     2 of the first full s.c.f. cycle only.
  No accuracy for occupation numbers given. Defaulting to  0.1000E-12.
  No threshold value for occupation numbers given. Defaulting to  0.0000E+00.
  No accuracy for fermi level given. Defaulting to  0.1000E-19.
  Maximum # of iterations to find E_F not set. Defaulting to  200.
  Preferred method for the eigenvalue solver ('KS_method') not specified in 'control.in'.
  Calling BLACS routine to test compilation state
  Since ScaLAPACK support is enabled, defaulting to 'elsi'.
  Will not use alltoall communication since running on < 1024 CPUs.
  Threshold for basis singularities not set.
  Default threshold for basis singularities:  0.1000E-04
  partition_type (choice of integration weights) for integrals was not specified.
  | Using a version of the partition function of Stratmann and coworkers ('stratmann_smoother').
  | At each grid point, the set of atoms used to build the partition table is smoothly restricted to
  | only those atoms whose free-atom density would be non-zero at that grid point.
  Partitioning for Hartree potential was not defined. Using partition_type for integrals.
  | Adjusted default value of keyword multip_moments_threshold to:       0.10000000E-11
  | This value may affect high angular momentum components of the Hartree potential in periodic systems.
  Spin handling was not defined in control.in. Defaulting to unpolarized case.
  Angular momentum expansion for Kerker preconditioner not set explicitly.
  | Using default value of   0
  No explicit requirement for turning off preconditioner.
  | By default, it will be turned off when the charge convergence reaches
  | sc_accuracy_rho  =   0.100000E-05
  | sc_accuracy_eev  =   0.100000E-02
  | sc_accuracy_etot =   0.100000E-05
  No special mixing parameter while Kerker preconditioner is on.
  Using default: charge_mix_param =     0.0500.
  No q(lm)/r^(l+1) cutoff set for long-range Hartree potential.
  | Using default value of  0.100000E-09 .
  | Verify using the multipole_threshold keyword.
  Defaulting to new monopole extrapolation.
  Density update method: automatic selection selected.
  Using density matrix based charge density update.
  Using density matrix based charge density update.
  Using packed matrix style: index .
  Defaulting to use time-reversal symmetry for k-point grid.
------------------------------------------------------------


------------------------------------------------------------
          Reading geometry description geometry.in.
------------------------------------------------------------
 * Warning! You did not set the 'relativistic' flag in input file 'control.in'.
 * Since you are not attempting to treat any elements beyond Ca(Z=20), FHI-aims
 * will default to 'relativistic none'.
 * You must ensure that this is really what you want!!
 * For example, DO NOT compute total-energy differences between results from
 * different settings of the 'relativistic' flag.
  Input structure read successfully.
  The structure contains      104 atoms,  and a total of       1344.000 electrons.

  Input geometry:
  | Unit cell:
  |       19.80045509        0.00000000        0.00000000
  |        0.00000000       16.43726540        0.00000000
  |        0.00000000        0.00000000        7.59917402
  | Atomic structure:
  |       Atom                x [A]            y [A]            z [A]
  |    1: Species Li            2.73289262        2.43270380        4.70960684
  |    2: Species Li            1.76777213        8.24826877        4.27471022
  |    3: Species Li            9.06446366        3.71772267        2.86387223
  |    4: Species Li            6.91553296        1.41114659        6.40448211
  |    5: Species Li            8.13887423        0.93757982        3.10373752
  |    6: Species Li            6.76194244        6.00849461        3.49849927
  |    7: Species Li           12.66884126        2.42633967        2.61915566
  |    8: Species Li           12.07958673        8.55855748        4.42579854
  |    9: Species Li           19.43371413        4.65406257        4.30079629
  |   10: Species Li           14.08341962        2.94010978        6.37096954
  |   11: Species Li           18.01726986        1.04908954        4.63474120
  |   12: Species Li           16.06358127        7.31435421        5.40078579
  |   13: Species Li            3.48486119       11.16971333        4.64945063
  |   14: Species Li            1.37157000       16.37345902        4.34242249
  |   15: Species Li            9.21622074       12.48364401        4.08583534
  |   16: Species Li            6.64505021        8.84807183        4.77952632
  |   17: Species Li            8.37095094        9.20479224        2.24150168
  |   18: Species Li            6.60478359       14.55715331        4.63939613
  |   19: Species Li           12.58123744       11.13991462        2.63723477
  |   20: Species Li           11.46113290       16.33929656        3.48668168
  |   21: Species Li            0.16678323       12.89413437        4.46141233
  |   22: Species Li           16.35208565       10.44503491        6.34413067
  |   23: Species Li           18.47256707        8.87662725        3.27004210
  |   24: Species Li           16.64095118       15.09941737        5.27177271
  |   25: Species P             9.17936489        7.21413394        4.51972461
  |   26: Species P             4.71746172        0.64902518        3.40758484
  |   27: Species P            19.25950612        8.00175118        6.39303753
  |   28: Species P            14.96811339        1.15671406        2.94023531
  |   29: Species P             9.30947712       15.72554988        5.31138148
  |   30: Species P             4.45704666        8.54803020        2.76096424
  |   31: Species P            19.26863968       16.07108562        6.52030450
  |   32: Species P            14.85433039        8.96588720        3.31799573
  |   33: Species S             1.20770039        0.73806475        6.76219265
  |   34: Species S             2.92793970        0.41697157        2.52130549
  |   35: Species S             5.50244813        2.61783228        2.31165895
  |   36: Species S             9.04284949        6.19554019        2.64686192
  |   37: Species S             7.84386930       15.50576932        6.66528348
  |   38: Species S             6.24188417        7.72580913        2.25631868
  |   39: Species S            10.89675107        6.50726519        5.51808885
  |   40: Species S             4.58816028        1.24098911        5.40986237
  |   41: Species S             0.37472092        2.65355130        2.27930932
  |   42: Species S             1.27486419        4.59422609        2.38832574
  |   43: Species S             7.21025877        2.20713519        1.32434568
  |   44: Species S             7.71057585        3.04624840        4.78207822
  |   45: Species S            11.19905081        4.66999604        4.43924923
  |   46: Species S             6.06187312        3.87340025        4.14831064
  |   47: Species S             3.11476935        4.52732228        3.37956605
  |   48: Species S             2.99194544        5.79070781        5.17561678
  |   49: Species S             0.39056022        2.21578774        4.24927640
  |   50: Species S             2.26273169        4.67857315        6.65658148
  |   51: Species S             9.92239287        1.20975361        5.12317922
  |   52: Species S            14.06683901        1.04356885        1.14286163
  |   53: Species S            15.94838321        3.17944443        3.00317692
  |   54: Species S            19.15005918        7.02153521        4.45908555
  |   55: Species S            17.56239163        0.54061516        6.99574659
  |   56: Species S            16.17903306        7.57362848        2.92363823
  |   57: Species S            19.36712139        6.44985503        0.18102251
  |   58: Species S            13.51539806        1.27927578        4.44255800
  |   59: Species S            10.29417564        1.69562521        0.37077336
  |   60: Species S            10.12349289        3.65923309        0.11195091
  |   61: Species S            17.24611125        3.35902809        4.54979343
  |   62: Species S            16.30058177        4.03189554        6.47670255
  |   63: Species S             0.15754194        4.73543417        6.71120542
  |   64: Species S            14.89570463        5.27653136        6.07657634
  |   65: Species S            12.15280392        4.37696100        7.59245049
  |   66: Species S            12.58061547        5.78498370        1.60150485
  |   67: Species S            10.39903279        1.68031424        2.43800237
  |   68: Species S            12.97431455        4.93464172        3.33978357
  |   69: Species S             1.08275920        9.25157274        6.61706012
  |   70: Species S             2.78981392        7.71265860        1.89463841
  |   71: Species S             4.69857086       10.54743216        2.06555410
  |   72: Species S             8.95342640       14.64069552        3.48653153
  |   73: Species S             7.56214103        6.97641585        5.71655850
  |   74: Species S             6.11659246       15.82119870        2.79084079
  |   75: Species S            11.24399043       15.20575708        5.99055690
  |   76: Species S             4.25730120        8.92153645        4.81332515
  |   77: Species S             1.28462606       11.11317269        2.03394526
  |   78: Species S             1.64412606       13.17393855        2.43269180
  |   79: Species S             6.66868370       11.19915150        2.32224226
  |   80: Species S             7.01779485       11.34389790        4.45041616
  |   81: Species S            11.12838875       13.12239946        5.58814466
  |   82: Species S             5.63806304       12.50075121        5.42937438
  |   83: Species S             3.44229584       13.37718506        3.56567706
  |   84: Species S             3.03331201       14.59688656        5.32527515
  |   85: Species S             0.89786685       10.50179992        3.93778448
  |   86: Species S             2.56275011       13.47802747        6.89619448
  |   87: Species S             9.73011483        9.21146817        4.50201668
  |   88: Species S            13.11929846        8.85367886        2.26386544
  |   89: Species S            15.60640046       10.83397889        2.57506747
  |   90: Species S            19.07884832       15.08388755        4.58157213
  |   91: Species S            17.50329316        8.66481783        7.17662018
  |   92: Species S            16.34714652       16.25725923        3.12496914
  |   93: Species S            19.26745712       14.53573233        0.29587844
  |   94: Species S            14.34677161        9.18756160        5.32521083
  |   95: Species S            10.46159633       12.30110130        0.83469722
  |   96: Species S            11.59259174       14.02041497        1.47211798
  |   97: Species S            17.59601904       11.06814690        2.79306430
  |   98: Species S            17.84543641       11.70903132        4.99537324
  |   99: Species S             0.48726813       13.02247017        6.88706943
  |  100: Species S            16.25419758       12.70899340        5.72204866
  |  101: Species S            13.53106521       13.37685881        1.74309285
  |  102: Species S            13.87430015       14.04965719        3.75068288
  |  103: Species S            10.20486762       11.06311301        2.36385419
  |  104: Species S            13.11132150       12.65894548        4.95632249

  Lattice parameters for 3D lattice (in Angstroms) :    19.800455   16.437265    7.599174
  Angle(s) between unit vectors (in degrees)      :    90.000000   90.000000   90.000000

  |

  | The smallest distance between any two atoms is         1.91908808 AA.
  |
  | The first atom of this pair is atom number                     62 .
  | The second atom of this pair is atom number                    64 .
  | Wigner-Seitz cell of the first atom image           0     0     0 .
  | (The Wigner-Seitz cell of the second atom is 0 0 0  by definition.)

  Symmetry information by spglib:
  | Precision set to  0.1E-04
  | Number of Operations  : 1
  | Space group           : 1
  | International         : P1 S
  | Schoenflies           : C1^1

  Quantities derived from the lattice vectors:
  | Reciprocal lattice vector 1:  0.317325  0.000000  0.000000
  | Reciprocal lattice vector 2:  0.000000  0.382252  0.000000
  | Reciprocal lattice vector 3:  0.000000  0.000000  0.826825
  | Unit cell volume                               :   0.247327E+04  A^3

  Range separation radius for Ewald summation (hartree_convergence_parameter):      4.14050375 bohr.

  Fractional coordinates:
                         L1                L2                L3
       atom_frac         0.13802171        0.14799930        0.61975247  Li
       atom_frac         0.08927937        0.50180298        0.56252301  Li
       atom_frac         0.45779067        0.22617647        0.37686625  Li
       atom_frac         0.34926131        0.08585045        0.84278661  Li
       atom_frac         0.41104481        0.05703989        0.40843090  Li
       atom_frac         0.34150440        0.36554101        0.46037889  Li
       atom_frac         0.63982576        0.14761212        0.34466320  Li
       atom_frac         0.61006612        0.52068013        0.58240521  Li
       atom_frac         0.98147815        0.28314093        0.56595576  Li
       atom_frac         0.71126747        0.17886855        0.83837658  Li
       atom_frac         0.90994221        0.06382385        0.60990065  Li
       atom_frac         0.81127334        0.44498608        0.71070695  Li
       atom_frac         0.17599905        0.67953599        0.61183631  Li
       atom_frac         0.06926962        0.99611819        0.57143348  Li
       atom_frac         0.46545500        0.75947207        0.53766835  Li
       atom_frac         0.33560088        0.53829342        0.62895340  Li
       atom_frac         0.42276558        0.55999535        0.29496649  Li
       atom_frac         0.33356726        0.88561893        0.61051321  Li
       atom_frac         0.63540143        0.67772311        0.34704229  Li
       atom_frac         0.57883179        0.99403983        0.45882377  Li
       atom_frac         0.00842320        0.78444523        0.58709174  Li
       atom_frac         0.82584393        0.63544846        0.83484477  Li
       atom_frac         0.93293649        0.54003066        0.43031546  Li
       atom_frac         0.84043276        0.91860884        0.69372970  Li
       atom_frac         0.46359363        0.43888894        0.59476525  P
       atom_frac         0.23825017        0.03948499        0.44841516  P
       atom_frac         0.97267997        0.48680550        0.84128058  P
       atom_frac         0.75594795        0.07037144        0.38691512  P
       atom_frac         0.47016481        0.95670110        0.69894195  P
       atom_frac         0.22509819        0.52003968        0.36332425  P
       atom_frac         0.97314125        0.97772259        0.85802805  P
       atom_frac         0.75020146        0.54546100        0.43662584  P
       atom_frac         0.06099357        0.04490192        0.88985890  S
       atom_frac         0.14787234        0.02536745        0.33178678  S
       atom_frac         0.27789503        0.15926203        0.30419871  S
       atom_frac         0.45669907        0.37692037        0.34830916  S
       atom_frac         0.39614591        0.94333023        0.87710631  S
       atom_frac         0.31523943        0.47001791        0.29691631  S
       atom_frac         0.55032831        0.39588490        0.72614324  S
       atom_frac         0.23171994        0.07549851        0.71190137  S
       atom_frac         0.01892486        0.16143508        0.29994172  S
       atom_frac         0.06438560        0.27950063        0.31428754  S
       atom_frac         0.36414611        0.13427630        0.17427495  S
       atom_frac         0.38941407        0.18532574        0.62928921  S
       atom_frac         0.56559563        0.28411028        0.58417523  S
       atom_frac         0.30614817        0.23564748        0.54588968  S
       atom_frac         0.15730797        0.27543038        0.44472808  S
       atom_frac         0.15110488        0.35229144        0.68107623  S
       atom_frac         0.01972481        0.13480270        0.55917609  S
       atom_frac         0.11427675        0.28463209        0.87596118  S
       atom_frac         0.50111943        0.07359823        0.67417580  S
       atom_frac         0.71043009        0.06348798        0.15039288  S
       atom_frac         0.80545539        0.19342904        0.39519781  S
       atom_frac         0.96715248        0.42717174        0.58678555  S
       atom_frac         0.88696909        0.03288960        0.92059302  S
       atom_frac         0.81710410        0.46075964        0.38473105  S
       atom_frac         0.97811496        0.39239222        0.02382134  S
       atom_frac         0.68258017        0.07782777        0.58461064  S
       atom_frac         0.51989591        0.10315738        0.04879127  S
       atom_frac         0.51127577        0.22261812        0.01473198  S
       atom_frac         0.87099570        0.20435444        0.59872210  S
       atom_frac         0.82324278        0.24528992        0.85229033  S
       atom_frac         0.00795648        0.28809136        0.88314933  S
       atom_frac         0.75229102        0.32101029        0.79963642  S
       atom_frac         0.61376387        0.26628280        0.99911523  S
       atom_frac         0.63537002        0.35194319        0.21074723  S
       atom_frac         0.52519161        0.10222590        0.32082465  S
       atom_frac         0.65525335        0.30021062        0.43949297  S
       atom_frac         0.05468355        0.56284136        0.87076044  S
       atom_frac         0.14089645        0.46921787        0.24932162  S
       atom_frac         0.23729610        0.64167804        0.27181298  S
       atom_frac         0.45218286        0.89070141        0.45880401  S
       atom_frac         0.38191754        0.42442679        0.75226051  S
       atom_frac         0.30891171        0.96252012        0.36725581  S
       atom_frac         0.56786525        0.92507827        0.78831685  S
       atom_frac         0.21501027        0.54276282        0.63340110  S
       atom_frac         0.06487861        0.67609620        0.26765347  S
       atom_frac         0.08303476        0.80146778        0.32012582  S
       atom_frac         0.33679447        0.68132693        0.30559140  S
       atom_frac         0.35442594        0.69013292        0.58564472  S
       atom_frac         0.56202692        0.79833227        0.73536211  S
       atom_frac         0.28474411        0.76051283        0.71446902  S
       atom_frac         0.17384933        0.81383276        0.46921903  S
       atom_frac         0.15319405        0.88803619        0.70077026  S
       atom_frac         0.04534577        0.63890189        0.51818585  S
       atom_frac         0.12942885        0.81996775        0.90749264  S
       atom_frac         0.49140865        0.56040150        0.59243500  S
       atom_frac         0.66257560        0.53863454        0.29790941  S
       atom_frac         0.78818393        0.65911078        0.33886150  S
       atom_frac         0.96355605        0.91766405        0.60290396  S
       atom_frac         0.88398439        0.52714473        0.94439477  S
       atom_frac         0.82559448        0.98904890        0.41122484  S
       atom_frac         0.97308153        0.88431573        0.03893561  S
       atom_frac         0.72456777        0.55894709        0.70076180  S
       atom_frac         0.52835131        0.74836665        0.10984052  S
       atom_frac         0.58547097        0.85296518        0.19372079  S
       atom_frac         0.88866740        0.67335695        0.36754841  S
       atom_frac         0.90126395        0.71234667        0.65735739  S
       atom_frac         0.02460894        0.79225284        0.90629184  S
       atom_frac         0.82090020        0.77318174        0.75298297  S
       atom_frac         0.68337142        0.81381291        0.22937925  S
       atom_frac         0.70070612        0.85474420        0.49356455  S
       atom_frac         0.51538551        0.67305070        0.31106725  S
       atom_frac         0.66217273        0.77013695        0.65221858  S

  Number of empty states per atom not set in control.in - providing a guess from actual geometry.
  | Total number of empty states used during s.c.f. cycle:      276
  If you use a very high smearing, use empty_states (per atom!) in control.in to increase this value.

  Structure-dependent array size parameters: 
  | Maximum number of distinct radial functions  :       43
  | Maximum number of basis functions            :     3840
  | Number of Kohn-Sham states (occupied + empty):      948
------------------------------------------------------------

------------------------------------------------------------
          Preparing all fixed parts of the calculation.
------------------------------------------------------------
  Determining machine precision:
    2.225073858507201E-308
  Setting up grids for atomic and cluster calculations.

  Creating wave function, potential, and density for free atoms.

  Species: Li

  List of occupied orbitals and eigenvalues:
    n    l              occ      energy [Ha]    energy [eV]
    1    0           2.0000        -1.901473       -51.7417
    2    0           1.0000        -0.103132        -2.8064


  Species: P

  List of occupied orbitals and eigenvalues:
    n    l              occ      energy [Ha]    energy [eV]
    1    0           2.0000       -76.356288     -2077.7603
    2    0           2.0000        -6.358286      -173.0178
    3    0           2.0000        -0.509419       -13.8620
    2    1           6.0000        -4.573976      -124.4642
    3    1           3.0000        -0.201560        -5.4847


  Species: S

  List of occupied orbitals and eigenvalues:
    n    l              occ      energy [Ha]    energy [eV]
    1    0           2.0000       -88.108280     -2397.5483
    2    0           2.0000        -7.732485      -210.4116
    3    0           2.0000        -0.629532       -17.1304
    2    1           6.0000        -5.750324      -156.4743
    3    1           4.0000        -0.257562        -7.0086


  Species: Cl

  List of occupied orbitals and eigenvalues:
    n    l              occ      energy [Ha]    energy [eV]
    1    0           2.0000      -100.710795     -2740.4802
    2    0           2.0000        -9.222997      -250.9705
    3    0           2.0000        -0.754245       -20.5241
    2    1           6.0000        -7.039872      -191.5647
    3    1           5.0000        -0.316221        -8.6048

  Creating fixed part of basis set: Ionic, confined, hydrogenic.
 
  Li                   hydrogenic:
 
  List of hydrogenic basis orbitals: 
    n    l      effective z      eigenvalue [eV]  inner max. [A]     outer max. [A]     outer radius [A]   
    2    1         1.600000        -8.7048           1.319365           1.319365           6.386418
    2    0         2.000000       -13.6052           0.203259           1.385485           6.232164
    3    2         2.600000       -10.2084           1.835332           1.835332           6.386418
    3    1         4.600000       -31.9883           0.343834           1.385485           5.381805
    2    1         1.800000       -11.0199           1.181903           1.181903           6.386418
    3    0         6.200000       -58.1113           0.062858           1.111823           4.371906
    4    2         4.700000       -18.7772           0.761113           2.401695           6.386418
    4    3         4.100000       -14.2833           2.073992           2.073992           6.386418
 
 
  P                    ion:

  List of free ionic orbitals and eigenvalues:
    n    l      energy [Ha]    energy [eV]
    1    0       -77.297133     -2103.3620
    2    0        -7.273914      -197.9333
    3    0        -1.267536       -34.4914
    2    1        -5.491316      -149.4263
    3    1        -0.913470       -24.8568


  List of ionic basis orbitals and eigenvalues:
    n    l      energy [Ha]    energy [eV]    outer radius [A]
    3    2        -0.458060       -12.4644       5.404780
    3    1        -0.913461       -24.8565       4.724723
    3    0        -1.267529       -34.4912       4.232463

 
  P                    hydrogenic:
 
  List of hydrogenic basis orbitals: 
    n    l      effective z      eigenvalue [eV]  inner max. [A]     outer max. [A]     outer radius [A]   
    4    3         6.200000       -32.6870           1.357793           1.357793           5.339109
    5    4         8.600000       -40.2502           1.534356           1.534356           5.404780
    4    2         6.200000       -32.6848           0.577014           1.820771           5.404780
 
 
  S                    ion:

  List of free ionic orbitals and eigenvalues:
    n    l      energy [Ha]    energy [eV]
    1    0       -89.127201     -2425.2745
    2    0        -8.724378      -237.4024
    3    0        -1.464668       -39.8556
    2    1        -6.744348      -183.5230
    3    1        -1.048520       -28.5317


  List of ionic basis orbitals and eigenvalues:
    n    l      energy [Ha]    energy [eV]    outer radius [A]
    3    2        -0.496514       -13.5108       5.386362
    3    0        -1.464662       -39.8555       3.967934

 
  S                    hydrogenic:
 
  List of hydrogenic basis orbitals: 
    n    l      effective z      eigenvalue [eV]  inner max. [A]     outer max. [A]     outer radius [A]   
    2    1         1.800000       -11.0118           1.168531           1.168531           5.452614
    4    3         7.000000       -41.6672           1.212182           1.212182           5.066981
    4    2         6.200000       -32.6848           0.582121           1.814567           5.386362
    5    4        10.800000       -63.4785           1.227092           1.227092           4.766538
 
 
  Cl                   ion:

  List of free ionic orbitals and eigenvalues:
    n    l      energy [Ha]    energy [eV]
    1    0      -101.807232     -2770.3157
    2    0       -10.290876      -280.0290
    3    0        -1.664625       -45.2967
    2    1        -8.110237      -220.6908
    3    1        -1.183915       -32.2160


  List of ionic basis orbitals and eigenvalues:
    n    l      energy [Ha]    energy [eV]    outer radius [A]
    3    2        -0.529392       -14.4055       5.389057
    3    0        -1.664620       -45.2966       3.780461

 
  Cl                   hydrogenic:
 
  List of hydrogenic basis orbitals: 
    n    l      effective z      eigenvalue [eV]  inner max. [A]     outer max. [A]     outer radius [A]   
    2    1         1.900000       -12.2741           1.113321           1.113321           5.389057
    4    3         7.400000       -46.5653           1.140877           1.140877           4.886961
    5    4        10.400000       -58.8635           1.273568           1.273568           4.886961
    3    2         3.300000       -16.4532           1.439178           1.439178           5.455343
 

  Adding cutoff potential to free-atom effective potential.
  Creating atomic-like basis functions for current effective potential.

  Species Li                  :

  List of atomic basis orbitals and eigenvalues:
    n    l      energy [Ha]    energy [eV]    outer radius [A]
    1    0        -1.901473       -51.7417       4.318785
    2    0        -0.103132        -2.8064       6.464971


  Species P                   :

  List of atomic basis orbitals and eigenvalues:
    n    l      energy [Ha]    energy [eV]    outer radius [A]
    1    0       -76.356288     -2077.7603       0.736837
    2    0        -6.358286      -173.0178       2.532824
    3    0        -0.509419       -13.8620       5.274236
    2    1        -4.573976      -124.4642       2.862183
    3    1        -0.201560        -5.4847       5.404780


  Species S                   :

  List of atomic basis orbitals and eigenvalues:
    n    l      energy [Ha]    energy [eV]    outer radius [A]
    1    0       -88.108280     -2397.5483       0.682391
    2    0        -7.732485      -210.4116       2.317169
    3    0        -0.629532       -17.1304       5.256262
    2    1        -5.750324      -156.4743       2.555240
    3    1        -0.257562        -7.0086       5.386362


  Species Cl                  :

  List of atomic basis orbitals and eigenvalues:
    n    l      energy [Ha]    energy [eV]    outer radius [A]
    1    0      -100.710795     -2740.4802       0.642251
    2    0        -9.222997      -250.9705       2.128190
    3    0        -0.754245       -20.5241       5.194994
    2    1        -7.039872      -191.5647       2.346844
    3    1        -0.316221        -8.6048       5.323577

  Assembling full basis from fixed parts.
  | Species Li :   atomic orbital   1 s accepted.
  | Species Li :    hydro orbital   3 s accepted.
  | Species Li :    hydro orbital   2 s accepted.
  | Species Li :   atomic orbital   2 s accepted.
  | Species Li :    hydro orbital   3 p accepted.
  | Species Li :    hydro orbital   2 p accepted.
  | Species Li :    hydro orbital   2 p accepted.
  | Species Li :    hydro orbital   3 d accepted.
  | Species Li :    hydro orbital   4 d accepted.
  | Species Li :    hydro orbital   4 f accepted.
  | Species P :   atomic orbital   1 s accepted.
  | Species P :   atomic orbital   2 s accepted.
  | Species P :    ionic orbital   3 s accepted.
  | Species P :   atomic orbital   3 s accepted.
  | Species P :   atomic orbital   2 p accepted.
  | Species P :    ionic orbital   3 p accepted.
  | Species P :   atomic orbital   3 p accepted.
  | Species P :    ionic orbital   3 d accepted.
  | Species P :    hydro orbital   4 d accepted.
  | Species P :    hydro orbital   4 f accepted.
  | Species P :    hydro orbital   5 g accepted.
  | Species S :   atomic orbital   1 s accepted.
  | Species S :   atomic orbital   2 s accepted.
  | Species S :    ionic orbital   3 s accepted.
  | Species S :   atomic orbital   3 s accepted.
  | Species S :   atomic orbital   2 p accepted.
  | Species S :   atomic orbital   3 p accepted.
  | Species S :    hydro orbital   2 p accepted.
  | Species S :    ionic orbital   3 d accepted.
  | Species S :    hydro orbital   4 d accepted.
  | Species S :    hydro orbital   4 f accepted.
  | Species S :    hydro orbital   5 g accepted.
  | Species Cl :   atomic orbital   1 s accepted.
  | Species Cl :   atomic orbital   2 s accepted.
  | Species Cl :    ionic orbital   3 s accepted.
  | Species Cl :   atomic orbital   3 s accepted.
  | Species Cl :   atomic orbital   2 p accepted.
  | Species Cl :   atomic orbital   3 p accepted.
  | Species Cl :    hydro orbital   2 p accepted.
  | Species Cl :    ionic orbital   3 d accepted.
  | Species Cl :    hydro orbital   3 d accepted.
  | Species Cl :    hydro orbital   4 f accepted.
  | Species Cl :    hydro orbital   5 g accepted.
 
  Basis size parameters after reduction:
  | Total number of radial functions:       43
  | Total number of basis functions :     3840
 
  Per-task memory consumption for arrays in subroutine allocate_ext:
  |          11.342760MB.
  Testing on-site integration grid accuracy.
  |  Species  Function  <phi|h_atom|phi> (log., in eV)  <phi|h_atom|phi> (rad., in eV)
           1        1                -51.7417001117                -51.7417000312
           1        2                 33.5927188637                 33.5926505054
           1        3                 69.1469416012                 69.1473382425
           1        4                 48.8336153902                 48.8810182289 ***
           1        5                 17.1749490570                 17.1749098864
           1        6                 32.1201183828                 32.1217831653
           1        7                  6.0166019876                  6.0249480535
           1        8                  4.9175332206                  4.9194842525
           1        9                 28.8010599263                 28.8011051086
           1       10                  9.9331480983                  9.9353515081
           2       11              -2077.7602992527              -2077.7602630746
           2       12               -173.0177635265               -173.0177629291
           2       13                -13.5620523038                -13.5620521963
           2       14                  6.3015351439                  6.3015396353
           2       15               -124.4642131574               -124.4642129967
           2       16                 -4.8468074573                 -4.8468065719
           2       17                  5.8113348591                  5.8108493787
           2       18                  5.1218113540                  5.1217878152
           2       19                 22.1386653152                 22.1386624883
           2       20                 19.3047268689                 19.3047231214
           2       21                 30.3235883931                 30.3235836780
           3       22              -2397.5482725833              -2397.5482291499
           3       23               -210.4116306505               -210.4116300246
           3       24                -16.8591546483                -16.8591544436
           3       25                  7.5848976656                  7.5849001027
           3       26               -156.4742745766               -156.4742744285
           3       27                 -7.0089268331                 -7.0089287934
           3       28                  6.8790437028                  6.8789536772
           3       29                  6.0023049431                  6.0023019693
           3       30                 19.5634804122                 19.5634829634
           3       31                 24.6809503130                 24.6809503093
           3       32                 47.5107032033                 47.5107040524
           4       33              -2740.4801671239              -2740.4801157382
           4       34               -250.9705040601               -250.9705032686
           4       35                -20.2716828479                -20.2716826054
           4       36                  9.0161300765                  9.0161279813
           4       37               -191.5646602865               -191.5646600866
           4       38                 -8.6049187754                 -8.6049181478
           4       39                  7.6458046208                  7.6458222053
           4       40                  6.9765726558                  6.9765744583
           4       41                 16.6546700656                 16.6546956458
           4       42                 28.0343243807                 28.0343233726
           4       43                 45.0370063060                 45.0370052039
 * Note: Onsite integrals marked "***" above are less accurate than
 * onsite_accuracy_threshold =    0.03000 eV. Usually, this is harmless.
 * When in doubt, tighten the "radial" and/or "radial_multiplier" flags to check.

  Preparing densities etc. for the partition functions (integrals / Hartree potential).

  Preparations completed.
  max(cpu_time)          :      0.465 s.
  Wall clock time (cpu1) :      0.471 s.
------------------------------------------------------------

------------------------------------------------------------
          Begin self-consistency loop: Initialization.

          Date     :  20220704, Time     :  095643.563
------------------------------------------------------------

  Initializing index lists of integration centers etc. from given atomic structure:
  Mapping all atomic coordinates to central unit cell.

  Initializing the k-points
          Using symmetry for reducing the k-points
  | k-points reduced from:        2 to        2
  | Number of k-points                             :         2
  The eigenvectors in the calculations are REAL.
  | Number of basis functions in the Hamiltonian integrals :     19518
  | Number of basis functions in a single unit cell        :      3840
  | Number of centers in hartree potential         :      2824
  | Number of centers in hartree multipole         :      1865
  | Number of centers in electron density summation:      1530
  | Number of centers in basis integrals           :      1618
  | Number of centers in integrals                 :       657
  | Number of centers in hamiltonian               :      1873
  | Consuming          1 KiB for k_phase.
  | Number of super-cells (origin) [n_cells]                     :         175
  | Number of super-cells (after PM_index) [n_cells]             :          46
  | Number of super-cells in hamiltonian [n_cells_in_hamiltonian]:          46
  | Size of matrix packed + index [n_hamiltonian_matrix_size] :    15202341
  Using simple linear distribution as default method for k-point parallelism.
  * Using 20 tasks for Scalapack Eigenvalue solver.
  Detailed listing of tasks and assigned k-points:
   Task     0 k-point     1 on node108
   Task     1 k-point     1 on node108
   Task     2 k-point     1 on node108
   Task     3 k-point     1 on node108
   Task     4 k-point     1 on node108
   Task     5 k-point     1 on node108
   Task     6 k-point     1 on node108
   Task     7 k-point     1 on node108
   Task     8 k-point     1 on node108
   Task     9 k-point     1 on node108
   Task    10 k-point     2 on node108
   Task    11 k-point     2 on node108
   Task    12 k-point     2 on node108
   Task    13 k-point     2 on node108
   Task    14 k-point     2 on node108
   Task    15 k-point     2 on node108
   Task    16 k-point     2 on node108
   Task    17 k-point     2 on node108
   Task    18 k-point     2 on node108
   Task    19 k-point     2 on node108
  K-point:     1 Tasks:    10 split into      5 X      2 BLACS grid
  Calculating block size based on n_basis =         3840 max_nprow =            5 max_npcol =            2
  ScaLAPACK block size set to:           16
  Allocating       11.796 MB for ovlp
  Allocating       11.796 MB for ham
  Allocating       11.796 MB for eigenvec
  Required Scalapack workspace - INTEGER:            1 REAL:             1
  Partitioning the integration grid into batches with parallel hashing+maxmin method.
  | Number of batches:    28021
  | Maximal batch size:     136
  | Minimal batch size:      52
  | Average batch size:      83.226
  | Standard deviation of batch sizes:      22.924

  Integration load balanced across    20 MPI tasks.
  Work distribution over tasks is as follows:
  Task     0 has     116621 integration points.
  Task     1 has     116551 integration points.
  Task     2 has     116624 integration points.
  Task     3 has     116640 integration points.
  Task     4 has     116635 integration points.
  Task     5 has     116581 integration points.
  Task     6 has     116639 integration points.
  Task     7 has     116653 integration points.
  Task     8 has     116550 integration points.
  Task     9 has     116613 integration points.
  Task    10 has     116556 integration points.
  Task    11 has     116614 integration points.
  Task    12 has     116616 integration points.
  Task    13 has     116546 integration points.
  Task    14 has     116625 integration points.
  Task    15 has     116634 integration points.
  Task    16 has     116582 integration points.
  Task    17 has     116560 integration points.
  Task    18 has     116615 integration points.
  Task    19 has     116625 integration points.
  Initializing partition tables, free-atom densities, potentials, etc. across the integration grid (initialize_grid_storage).
  | initialize_grid_storage: Actual outermost partition radius vs. multipole_radius_free
  | (-- VB: in principle, multipole_radius_free should be larger, hence this output)
  | Species        1: Confinement radius =              7.000000000000000 AA, multipole_radius_free =              7.042572113910259 AA.
  | Species        1: outer_partition_radius set to              7.042572113910259 AA .
  | Species        2: Confinement radius =              6.000000000000000 AA, multipole_radius_free =              6.033387558927091 AA.
  | Species        2: outer_partition_radius set to              6.033387558927091 AA .
  | Species        3: Confinement radius =              6.000000000000000 AA, multipole_radius_free =              6.012827091137924 AA.
  | Species        3: outer_partition_radius set to              6.012827091137924 AA .
  | Species        4: Confinement radius =              6.000000000000000 AA, multipole_radius_free =              6.015836048499353 AA.
  | Species        4: outer_partition_radius set to              6.015836048499353 AA .
  | Original list of interatomic distances with        1618 x       1618 entries is created.
  | Net number of integration points:  2332080
  | of which are non-zero points    :  1896964
  | Numerical average free-atom electrostatic potential    :     -9.54825234 eV
  Renormalizing the initial density to the exact electron count on the 3D integration grid.
  | Initial density: Formal number of electrons (from input files) :    1344.0000000000
  | Integrated number of electrons on 3D grid     :    1344.0001039736
[...]
  | Total energy evaluation                    :        0.003 s           0.006 s

  Partial memory accounting:
  | Current value for overall tracked memory usage on task 0  :         226.824 MB
  | Peak value for overall tracked memory usage on task 0     :         470.061 MB after allocating temp_ham_ovlp
  | Largest tracked array allocation on task 0 so far         :         121.619 MB  when allocating overlap_matrix
  Note:  These values currently only include a subset of arrays which are explicitly tracked.
  The "true" memory usage will be greater.
------------------------------------------------------------
  |------------------------------------------
  | Final ELSI Output
  |------------------------------------------
  | Number of basis functions :         3840
  | Number of electrons       :       1344.0
  | Number of spins           :            1
  | Number of k-points        :            2
  | Number of states          :          948
  | Solver                    :         ELPA
  | Parallel mode             :   MULTI_PROC
  | Matrix format             :  BLACS_DENSE
  | Matrix sparsity           :        0.177
  |------------------------------------------
  | ELSI Project (c)  elsi-interchange.org
  |------------------------------------------
  Removing unitary transformations (pure translations, rotations) from forces on atoms.
  Atomic forces before filtering:
  | Net force on center of mass :   0.625122E-03 -0.182498E-02  0.331961E-02 eV/A
  Atomic forces after filtering:
  | Net force on center of mass :   0.107044E-14  0.107044E-14  0.713624E-15 eV/A

  Energy and forces in a compact form:
  | Total energy uncorrected      :         -0.859139175732693E+06 eV
  | Total energy corrected        :         -0.859139175732693E+06 eV  <-- do not rely on this value for anything but (periodic) metals
  | Electronic free energy        :         -0.859139175732693E+06 eV
  Total atomic forces (unitary forces cleaned) [eV/Ang]:
  |   1         -0.199870560823941E+00         -0.264687146871653E-01          0.217292515349456E-01
  |   2          0.656745194366925E-01         -0.447568214603847E-01          0.316307820035384E-01
  |   3          0.931430407639035E-02          0.721587523718211E-01         -0.203803786197908E-01
  |   4         -0.892350415154518E-01         -0.609857879575971E-01          0.658092076044453E-01
  |   5          0.591386614683237E-01         -0.239478094282610E+00          0.521557053167587E-01
  |   6          0.241747133991663E+00         -0.282392599958311E+00          0.367600159495827E+00
  |   7         -0.221937414267768E+00          0.153764121000131E+00         -0.348986640894066E+00
  |   8          0.108857925329343E+00         -0.532292383737036E-01          0.326743500991101E-01
  |   9         -0.700165691947967E-01         -0.355168945730300E-01         -0.338597708810285E-01
  |  10          0.952942636924767E-01         -0.104559375274147E+00          0.554528780568336E-02
  |  11         -0.651074176979430E-01         -0.203458311072198E-01         -0.270712214141016E+00
  |  12          0.668225106160779E-01          0.315918428275250E-01          0.149200114762225E+00
  |  13          0.526870637979821E-01         -0.196700607467037E-01          0.383172602108023E-02
  |  14         -0.157456056345783E-01          0.489371519175024E-01          0.855083699256219E-01
  |  15          0.699854467483646E-01         -0.365674548665755E+00         -0.469172613950257E-01
  |  16         -0.189936704823241E+00          0.246932501058189E+00         -0.718264658443032E-01
  |  17          0.186605938874553E-01         -0.227365318510091E-01         -0.574857889121545E-02
  |  18          0.130702587305372E+00         -0.923315113695746E-01          0.373980964113467E+00
  |  19         -0.360623340575167E-01          0.563158614684508E-02         -0.471666655250134E-01
  |  20          0.253235662949720E+00         -0.163410840400476E+00          0.188095821930576E+00
  |  21         -0.483879451605778E-01         -0.988563108910415E-01         -0.287436033530017E-01
  |  22         -0.313837513321608E+00          0.523420969556488E-01         -0.126084408260171E+00
  |  23         -0.394745306029614E-01          0.424950352811723E-01         -0.125407116720916E+00
  |  24          0.125368226616512E+00          0.615499807249944E-01          0.116915866779247E+00
  |  25         -0.455187343519961E+00         -0.136073839804211E+00         -0.770670207743075E+00
  |  26         -0.441369916546781E+00          0.249364692913262E+00          0.506742388610192E+00
  |  27          0.852928162706447E+00          0.824339519327388E+00         -0.979861648277684E+00
  |  28         -0.937191975027511E+00          0.112358753881742E+01          0.136983778305213E+00
  |  29         -0.353790489754422E+00         -0.315518587955836E+00         -0.686699359299021E+00
  |  30         -0.995916504465913E+00         -0.590517442717804E+00          0.799737901334675E-01
  |  31          0.108644757407192E+01          0.594296643885508E+00         -0.964900440797454E+00
  |  32         -0.374503887693836E+00         -0.863394636662059E-01          0.471175158168571E+00
  |  33         -0.968914453751689E+00         -0.922303541111445E+00         -0.174594595188093E+00
  |  34          0.337187362570629E+00          0.334552141090567E+00          0.196205940086585E+00
  |  35         -0.184540073810474E+00          0.685457402141262E+00         -0.205970031515398E+00
  |  36         -0.135933160942287E-01          0.121161160704261E+01          0.926074207475282E+00
  |  37         -0.261660908053537E-01         -0.156330339842394E+00         -0.250494809351742E+00
  |  38          0.999442945198230E-01          0.332100762633588E+00         -0.267482167804108E+00
  |  39          0.548783271255500E+00         -0.120614331854867E+01         -0.409900309932911E+00
  |  40          0.312593573015736E+00         -0.660260572800303E+00         -0.710366919206588E+00
  |  41          0.389613604679645E+00          0.114255445258906E+01         -0.624520852980417E+00
  |  42         -0.303365076935330E+00          0.687702992337881E-01         -0.495746200107531E+00
  |  43         -0.285719198802562E+00          0.260365826649569E+00          0.165686140401316E+00
  |  44          0.124283966774740E+01         -0.611578188269148E+00          0.462064444816956E+00
  |  45          0.309318080262763E+00          0.368111070558623E+00          0.792797240685457E+00
  |  46         -0.147164322263065E+01          0.346395989109011E+00         -0.958735265396486E+00
  |  47         -0.186232377977061E-02          0.387595810582030E-01          0.436371418860585E+00
  |  48          0.200667524266818E-01         -0.102067345794394E+00         -0.109648919038524E+01
  |  49          0.346395112707641E-03         -0.501364476761991E+00          0.876166537892826E+00
  |  50         -0.609452391095348E-01         -0.588787092634468E+00          0.685493909084645E+00
  |  51          0.433947187074585E-01         -0.228238096643537E+00         -0.766527618760042E-02
  |  52         -0.171581356113936E+00          0.524982512117665E+00          0.715774917340056E-01
  |  53         -0.312289095567592E+00          0.178153580278970E+00         -0.414189263683930E+00
  |  54          0.320833768928108E+00          0.835208630166854E+00          0.108860086995963E+01
  |  55         -0.446238335650150E+00          0.148557673425801E+00         -0.209621560543742E+00
  |  56          0.464824633282646E+00         -0.437372508340293E+00          0.149509549234597E+00
  |  57          0.196961915936647E+00         -0.154805299426549E+01          0.124740823098631E+00
  |  58          0.346787282606195E+00         -0.108604925080390E+00          0.137020727315132E+00
  |  59          0.145591868125515E+00         -0.380754422995850E+00          0.968073282515666E-01
  |  60          0.151228356965542E+00          0.110887168148758E+01         -0.609211719512999E+00
  |  61         -0.292176179170621E+00         -0.688370904979055E-01          0.484203763735572E-01
  |  62          0.160553328997694E+01         -0.171810622507746E+01          0.332901953618611E+00
  |  63          0.410188764454739E-01          0.452526203287723E+00          0.623382564142030E+00
  |  64         -0.157891682926247E+01          0.148060118356186E+01         -0.429557173158949E+00
  |  65         -0.100772201888077E+00          0.259624486591910E+00          0.749357441550630E+00
  |  66         -0.361720506294611E+00          0.145816744978826E+00         -0.171867149404089E+01
  |  67          0.680013255732877E-01         -0.248429030779119E+00          0.196634488062935E+00
  |  68          0.577929262412380E-01         -0.581863401589678E+00          0.879043375705770E+00
  |  69         -0.116954493137612E+01         -0.103508886660750E+01         -0.261770499352274E+00
  |  70          0.107534646089232E+01          0.835470067347347E+00          0.760047235127186E+00
  |  71         -0.297352236604588E-01          0.109884197018974E+01         -0.660543183491901E+00
  |  72          0.302766837603522E+00          0.134084716087425E+01          0.109593290346595E+01
  |  73          0.187161874220062E+00         -0.463160812789021E+00         -0.121202140552219E+00
  |  74          0.888863980141664E-01          0.126891581603700E+00          0.459974573507843E-01
  |  75         -0.834303656767891E-01         -0.795959163382036E+00         -0.400679480375909E+00
  |  76          0.428982291641718E-01         -0.574638522283447E+00         -0.313620165070688E+00
  |  77          0.437024292289762E+00          0.111313390096963E+01         -0.281390565252408E+00
  |  78         -0.127992334140158E+00          0.647441707573446E-01         -0.354919621163810E+00
  |  79         -0.480270838338088E+00         -0.977083617409513E-01          0.696879642309705E-01
  |  80         -0.509115769619806E-01         -0.585842838957025E-01          0.317356548724588E+00
  |  81          0.430811215137034E+00          0.119598021348305E+00          0.565572901209885E-01
  |  82          0.376608560570993E+00         -0.295456738938718E+00         -0.208695165411278E+00
  |  83         -0.240227036154116E+00         -0.109244088160668E+00          0.122853441747619E+00
  |  84         -0.903442606361935E-02          0.139343686271371E+00         -0.123005395182151E+01
  |  85         -0.196877040746124E+00         -0.478904171639689E+00          0.716567908437310E+00
  |  86         -0.229319306695858E+00         -0.756329529544160E+00          0.725578075114802E+00
  |  87         -0.418008581406517E+00         -0.538912020454642E+00         -0.121812151732848E+00
  |  88         -0.687337132734120E-02          0.286501225174446E+00         -0.740373890327979E-01
  |  89         -0.228646537077719E+00          0.710208208529495E+00         -0.478459252873854E+00
  |  90          0.178728150595759E+00          0.108743630193843E+01          0.831477038183802E+00
  |  91         -0.516690960762806E-01         -0.251836284040873E+00         -0.390233845362407E-01
  |  92          0.141847159502070E+01         -0.113938253211078E+01          0.478956221962660E+00
  |  93          0.135636281496861E+00         -0.135665934642277E+01          0.393373117200847E+00
  |  94          0.950882284679958E-01         -0.159599386002050E+00         -0.294200594243656E+00
  |  95          0.806980220439220E+00          0.156229819197587E+01         -0.734991691088591E+00
  |  96         -0.746876772733127E+00         -0.373182929174975E+00         -0.497408672403655E+00
  |  97         -0.182403298277115E+00          0.147567167137500E+00          0.350919479214286E+00
  |  98          0.290861512976529E+00         -0.110314227033229E+00         -0.287382061362512E+00
  |  99          0.261699814992460E+00          0.270440945138166E+00          0.524349570455444E+00
  | 100         -0.234762235114293E-01          0.660603266618936E-01         -0.602347418717844E-02
  | 101          0.241284834330205E+00          0.171231081819857E+00          0.187982173867947E+00
  | 102         -0.390398821277456E-01          0.159883947863083E+00         -0.876388665361138E+00
  | 103         -0.395284126013965E+00         -0.775184386007376E+00          0.123262195774161E+01
  | 104         -0.172144885146021E+00         -0.532409529827384E+00          0.715115765046361E+00

  ------------------------------------ 
  Start decomposition of the XC Energy 
  ------------------------------------ 
  X and C from original XC functional choice 
  Hartree-Fock Energy :          0.000000000 Ha              0.000000000 eV
  X Energy            :      -2018.305256111 Ha         -54920.880362417 eV
  C Energy            :        -52.041705117 Ha          -1416.126847969 eV
  Total XC Energy     :      -2070.346961228 Ha         -56337.007210385 eV
  ------------------------------------ 
  LDA X and C from self-consistent density 
  X Energy LDA        :      -1870.319982415 Ha         -50893.996179532 eV
  C Energy LDA        :       -103.217849136 Ha          -2808.700580104 eV
  ------------------------------------ 
  End decomposition of the XC Energy 
  ------------------------------------ 

------------------------------------------------------------

------------------------------------------------------------------------------
  Final output of selected total energy values:

  The following output summarizes some interesting total energy values
  at the end of a run (AFTER all relaxation, molecular dynamics, etc.).

  | Total energy of the DFT / Hartree-Fock s.c.f. calculation      :        -859139.175732693 eV
  | Final zero-broadening corrected energy (caution - metals only) :        -859139.175732693 eV
  | For reference only, the value of 1 Hartree used in FHI-aims is :             27.211384500 eV

  Before relying on these values, please be sure to understand exactly which
  total energy value is referred to by a given number. Different objects may
  all carry the same name 'total energy'. Definitions:

  Total energy of the DFT / Hartree-Fock s.c.f. calculation:
  | Note that this energy does not include ANY quantities calculated after the
  | s.c.f. cycle, in particular not ANY RPA, MP2, etc. many-body perturbation terms.

  Final zero-broadening corrected energy:
  | For metallic systems only, a broadening of the occupation numbers at the Fermi
  | level can be extrapolated back to zero broadening by an electron-gas inspired
  | formula. For all systems that are not real metals, this value can be
  | meaningless and should be avoided.

------------------------------------------------------------------------------
  Methods described in the following list of references were used in this FHI-aims run.
  If you publish the results, please make sure to cite these reference if they apply.
  FHI-aims is an academic code, and for our developers (often, Ph.D. students
  and postdocs), scientific credit in the community is essential.
  Thank you for helping us!

  For any use of FHI-aims, please cite:

    Volker Blum, Ralf Gehrke, Felix Hanke, Paula Havu, Ville Havu,
    Xinguo Ren, Karsten Reuter, and Matthias Scheffler
    'Ab initio molecular simulations with numeric atom-centered orbitals'
    Computer Physics Communications 180, 2175-2196 (2009)
    http://dx.doi.org/10.1016/j.cpc.2009.06.022


  The provided symmetry information was generated with SPGlib:

    Atsushi Togo, Yusuke Seto, Dimitar Pashov
    SPGlib 1.7.3 obtained from http://spglib.sourceforge.net
    Copyright (C) 2008 Atsushi Togo


  The scalable eigensolver library ELPA was used in your run.
  ELPA is essential especially for large systems on hundreds or thousands of CPUs.
  For ELPA, please cite:

    Andreas Marek, Volker Blum, Rainer Johanni, Ville Havu, Bruno Lang,
    Thomas Auckenthaler, Alexander Heinecke, Hans-Joachim Bungartz, and Hermann Lederer,
    'The ELPA Library - Scalable Parallel Eigenvalue Solutions
    for Electronic Structure Theory and Computational Science'
    The Journal of Physics: Condensed Matter 26, 213201 (2014).
    http://dx.doi.org/10.1088/0953-8984/26/21/213201


  The ELSI infrastructure was used in your run to solve the Kohn-Sham electronic structure.
  Please check out http://elsi-interchange.org to learn more.
  If scalability is important for your project, please acknowledge ELSI by citing:

    V. W-z. Yu, F. Corsetti, A. Garcia, W. P. Huhn, M. Jacquelin, W. Jia,
    B. Lange, L. Lin, J. Lu, W. Mi, A. Seifitokaldani, A. Vazquez-Mayagoitia,
    C. Yang, H. Yang, and V. Blum
    'ELSI: A unified software interface for Kohn-Sham electronic structure solvers'
    Computer Physics Communications 222, 267-285 (2018).
    http://dx.doi.org/10.1016/j.cpc.2017.09.007


  For the real-space grid partitioning and parallelization used in this calculation, please cite:

    Ville Havu, Volker Blum, Paula Havu, and Matthias Scheffler,
    'Efficient O(N) integration for all-electron electronic structure calculation'
    'using numerically tabulated basis functions'
    Journal of Computational Physics 228, 8367-8379 (2009).
    http://dx.doi.org/10.1016/j.jcp.2009.08.008

  Of course, there are many other important community references, e.g., those cited in the
  above references. Our list is limited to references that describe implementations in the
  FHI-aims code. The reason is purely practical (length of this list) - please credit others as well.

------------------------------------------------------------
          Leaving FHI-aims.
          Date     :  20220704, Time     :  105036.749

          Computational steps:
          | Number of self-consistency cycles          :           22
          | Number of SCF (re)initializations          :            1

          Detailed time accounting                     :  max(cpu_time)    wall_clock(cpu1)
          | Total time                                 :     3233.132 s        3233.766 s
          | Preparation time                           :        0.465 s           0.471 s
          | Boundary condition initalization           :        0.856 s           0.856 s
          | Grid partitioning                          :        4.207 s           4.207 s
          | Preloading free-atom quantities on grid    :        0.035 s           0.043 s
          | Free-atom superposition energy             :        1.521 s           1.521 s
          | Total time for integrations                :      682.228 s         682.252 s
          | Total time for solution of K.-S. equations :       57.223 s          57.229 s
          | Total time for density & force components  :     1830.204 s        1830.234 s
          | Total time for mixing & preconditioning    :      238.566 s         238.735 s
          | Total time for Hartree multipole update    :        0.633 s           0.634 s
          | Total time for Hartree multipole sum       :      407.032 s         407.053 s
          | Total time for total energy evaluation     :        0.012 s           0.020 s

          Partial memory accounting:
          | Residual value for overall tracked memory usage across tasks :           0.000 MB (should be 0.000 MB)
          | Peak values for overall tracked memory usage (after allocating temp_ham_ovlp):
          |   Minimum:      470.061 MB (on task  1)
          |   Maximum:      470.061 MB (on task  1)
          |   Average:      470.061 MB
          | Largest tracked array allocation (overlap_matrix):
          |   Minimum:      121.619 MB (on task  1)
          |   Maximum:      121.619 MB (on task  1)
          |   Average:      121.619 MB
          Note:  These values currently only include a subset of arrays which are explicitly tracked.
          The "true" memory usage will be greater.

          Have a nice day.
------------------------------------------------------------
