  MPI-parallelism will be employed.
------------------------------------------------------------
          Invoking FHI-aims ...
          Version 171221_1
          Compiled on 2020/09/23 at 19:46:43 on host login.service.

          When using FHI-aims, please cite the following reference:

          Volker Blum, Ralf Gehrke, Felix Hanke, Paula Havu,
          Ville Havu, Xinguo Ren, Karsten Reuter, and Matthias Scheffler,
          'Ab Initio Molecular Simulations with Numeric Atom-Centered Orbitals',
          Computer Physics Communications 180, 2175-2196 (2009)

          For any questions about FHI-aims, please visit the aimsclub website
          with its forums and wiki. Contributions to both the forums and the
          wiki are warmly encouraged - they are for you, and everyone is welcome there.

------------------------------------------------------------



  Date     :  20220723, Time     :  171359.428
  Time zero on CPU 1             :   0.862050000000000E-01  s.
  Internal wall clock time zero  :           427828439.428  s.

  FHI-aims created a unique identifier for this run for later identification
  aims_uuid : DEF54B8D-2E5E-497F-A8B0-41E4542CFB58

  Using       20 parallel tasks.
  Task        0 on host node043 reporting.
  Task        1 on host node043 reporting.
  Task        2 on host node043 reporting.
  Task        3 on host node043 reporting.
  Task        4 on host node043 reporting.
  Task        5 on host node043 reporting.
  Task        6 on host node043 reporting.
  Task        7 on host node043 reporting.
  Task        8 on host node043 reporting.
  Task        9 on host node043 reporting.
  Task       10 on host node043 reporting.
  Task       11 on host node043 reporting.
  Task       12 on host node043 reporting.
  Task       13 on host node043 reporting.
  Task       14 on host node043 reporting.
  Task       15 on host node043 reporting.
  Task       16 on host node043 reporting.
  Task       17 on host node043 reporting.
  Task       18 on host node043 reporting.
  Task       19 on host node043 reporting.

  Performing system and environment tests:
  *** Environment variable OMP_NUM_THREADS is not set
  *** For performance reasons you might want to set it to 1
  | Maximum stacksize for task 0: unlimited
  | Maximum stacksize for task 1: unlimited
  | Maximum stacksize for task 2: unlimited
  | Maximum stacksize for task 3: unlimited
  | Maximum stacksize for task 4: unlimited
  | Maximum stacksize for task 5: unlimited
  | Maximum stacksize for task 6: unlimited
  | Maximum stacksize for task 7: unlimited
  | Maximum stacksize for task 8: unlimited
  | Maximum stacksize for task 9: unlimited
  | Maximum stacksize for task 10: unlimited
  | Maximum stacksize for task 11: unlimited
  | Maximum stacksize for task 12: unlimited
  | Maximum stacksize for task 13: unlimited
  | Maximum stacksize for task 14: unlimited
  | Maximum stacksize for task 15: unlimited
  | Maximum stacksize for task 16: unlimited
  | Maximum stacksize for task 17: unlimited
  | Maximum stacksize for task 18: unlimited
  | Maximum stacksize for task 19: unlimited
  | Current stacksize for task 0: unlimited
  | Current stacksize for task 1: unlimited
  | Current stacksize for task 2: unlimited
  | Current stacksize for task 3: unlimited
  | Current stacksize for task 4: unlimited
  | Current stacksize for task 5: unlimited
  | Current stacksize for task 6: unlimited
  | Current stacksize for task 7: unlimited
  | Current stacksize for task 8: unlimited
  | Current stacksize for task 9: unlimited
  | Current stacksize for task 10: unlimited
  | Current stacksize for task 11: unlimited
  | Current stacksize for task 12: unlimited
  | Current stacksize for task 13: unlimited
  | Current stacksize for task 14: unlimited
  | Current stacksize for task 15: unlimited
  | Current stacksize for task 16: unlimited
  | Current stacksize for task 17: unlimited
  | Current stacksize for task 18: unlimited
  | Current stacksize for task 19: unlimited
  | Checking for scalapack...
  | Testing pdtran()...
  | All pdtran() tests passed.

  Obtaining array dimensions for all initial allocations:
  
  -----------------------------------------------------------------------
  Parsing control.in (first pass over file, find array dimensions only).
  The contents of control.in will be repeated verbatim below
  unless switched off by setting 'verbatim_writeout .false.' .
  in the first line of control.in .
  -----------------------------------------------------------------------
  
  #===============================================================================
  # FHI-aims file: ./control.in
  # Created using the Atomic Simulation Environment (ASE)
  # Wed Mar 24 12:41:28 2021
  #===============================================================================
  xc                                 pbe
  sc_accuracy_etot                   1e-06
  sc_accuracy_eev                    0.001
  sc_accuracy_rho                    1e-06
  sc_accuracy_forces                 0.0001
  friction_temperature               300  # default 300
  
    k_grid                           3  3  3
  
  
  ################################################################################
  #
  #  FHI-aims code project
  #  VB, Fritz-Haber Institut, 2009
  #
  #  Suggested "light" defaults for Li atom (to be pasted into control.in file)
  #  Be sure to double-check any results obtained with these settings for post-processing,
  #  e.g., with the "tight" defaults and larger basis sets.
  #
  ################################################################################
    species        Li
  #     global species definitions
      nucleus             3
      mass                6.941
  #
      l_hartree           4
  #
      cut_pot             3.5  1.5  1.0
      basis_dep_cutoff    1e-4
  #
      radial_base         29 5.0
      radial_multiplier   1
      angular_grids       specified
        division   0.4484  110
        division   0.5659  194
        division   0.6315  302
  #      division   0.6662  434
  #      division   0.8186  590
  #      division   0.9037  770
  #      division   6.2760  974
  #      outer_grid   974
        outer_grid   302
  ################################################################################
  #
  #  Definition of "minimal" basis
  #
  ################################################################################
  #     valence basis states
      valence      2  s   1.
  #     ion occupancy
      ion_occ      1  s   2.
  ################################################################################
  #
  #  Suggested additional basis functions. For production calculations,
  #  uncomment them one after another (the most important basis functions are
  #  listed first).
  #
  #  Constructed for dimers: 1.80 A, 2.25 A, 2.75 A, 3.50 A, 4.50 A
  #
  ################################################################################
  #  "First tier" - improvements: -189.23 meV to -6.35 meV
       hydro 2 p 1.6
       hydro 2 s 2
       hydro 3 d 2.6
  #  "Second tier" - improvements: -4.69 meV to -0.41 meV
  #     hydro 3 p 4.6
  #     hydro 2 p 1.8
  #     hydro 3 s 6.2
  #     hydro 4 d 4.7
  #     hydro 4 f 4.1
  #  "Third tier" - improvements: -0.20 meV to -0.15 meV
  #     hydro 4 d 0.95
  #     hydro 3 p 6.2
  #     hydro 3 s 1.7
  #  Further functions, listed for completeness
  #     VB: The following functions are only listed for completeness; test very
  #         carefully before any kind of production use. From the point of view
  #         of the basis construction, their main role is to fill up space,
  #         and they are solely determined by the location of the cutoff potential.
  #     hydro 3 p 0.1  # -0.15 meV
  #     hydro 4 d 5    # -0.12 meV
  #     hydro 4 f 0.1  # -0.14 meV
  #     hydro 5 g 0.1  # -0.06 meV
  
  
  ################################################################################
  #
  #  FHI-aims code project
  #  VB, Fritz-Haber Institut, 2010
  #
  #  Suggested "light" defaults for P atom (to be pasted into control.in file)
  #  Be sure to double-check any results obtained with these settings for post-processing,
  #  e.g., with the "tight" defaults and larger basis sets.
  #
  ################################################################################
    species        P
  #     global species definitions
      nucleus             15
      mass                30.973762
  #
      l_hartree           4
  #
      cut_pot             3.5          1.5  1.0
      basis_dep_cutoff    1e-4
  #
      radial_base         43 5.0
      radial_multiplier   1
      angular_grids       specified
        division   0.5527   50
        division   0.8801  110
        division   1.1447  194
        division   1.3165  302
  #      division   1.4113  434
  #      division   1.4781  590
  #      division   1.5482  770
  #      division   1.5845  974
  #      division   2.2606 1202
        outer_grid  302
  ################################################################################
  #
  #  Definition of "minimal" basis
  #
  ################################################################################
  #     valence basis states
      valence      3  s   2.
      valence      3  p   3.
  #     ion occupancy
      ion_occ      3  s   1.
      ion_occ      3  p   2.
  ################################################################################
  #
  #  Suggested additional basis functions. For production calculations,
  #  uncomment them one after another (the most important basis functions are
  #  listed first).
  #
  #  Constructed for dimers: 1.625 A, 1.875 A, 2.5 A, 3.25 A, 4.0 A
  #
  ################################################################################
  #  "First tier" - improvements: -726.20 meV to -35.91 meV
       ionic 3 d auto
       ionic 3 p auto
  #     hydro 4 f 6.2
  #     hydro 5 g 8.6
       ionic 3 s auto
  #  "Second tier" - improvements: -16.02 meV to -1.71 meV
  #     hydro 4 d 6.2
  #     hydro 4 p 9.2
  #     hydro 5 f 9.8
  #     hydro 1 s 0.7
  #     hydro 5 g 13.2
  #  "Third tier" - improvements: -1.82 meV to -0.20 meV
  #     hydro 3 p 2.5
  #     hydro 4 d 6.4
  #     hydro 5 f 11.2
  #     hydro 2 s 1.5
  #  "Fourth tier" - improvements: -0.91 meV to -0.17 meV
  #     hydro 3 d 16.8
  #     hydro 5 g 18
  #     hydro 4 p 4.5
  #     hydro 3 s 2.1
  #  Further basis functions that fell out of the optimization - < -0.09 meV
  #     hydro 4 p 10.4
  #     hydro 4 d 17.6
  #     hydro 4 s 11.2
  ################################################################################
  #
  #  FHI-aims code project
  #  VB, Fritz-Haber Institut, 2009
  #
  #  Suggested "light" defaults for S atom (to be pasted into control.in file)
  #  Be sure to double-check any results obtained with these settings for post-processing,
  #  e.g., with the "tight" defaults and larger basis sets.
  #
  ################################################################################
    species        S
  #     global species definitions
      nucleus             16
      mass                32.065
  #
      l_hartree           4
  #
      cut_pot             3.5          1.5  1.0
      basis_dep_cutoff    1e-4
  #
      radial_base         44 5.0
      radial_multiplier   1
      angular_grids       specified
        division   0.4665  110
        division   0.5810  194
        division   0.7139  302
  #      division   0.8274  434
  #      division   0.9105  590
  #      division   1.0975  770
  #      division   1.2028  974
  #      outer_grid  974
        outer_grid  302
  ################################################################################
  #
  #  Definition of "minimal" basis
  #
  ################################################################################
  #     valence basis states
      valence      3  s   2.
      valence      3  p   4.
  #     ion occupancy
      ion_occ      3  s   1.
      ion_occ      3  p   3.
  ################################################################################
  #
  #  Suggested additional basis functions. For production calculations,
  #  uncomment them one after another (the most important basis functions are
  #  listed first).
  #
  #  Constructed for dimers: 1.6 A, 1.9 A, 2.5 A, 3.25 A, 4.0 A
  #
  ################################################################################
  #  "First tier" - improvements: -652.81 meV to -45.53 meV
       ionic 3 d auto
       hydro 2 p 1.8
  #     hydro 4 f 7
       ionic 3 s auto
  #  "Second tier" - improvements: -30.20 meV to -1.74 meV
  #     hydro 4 d 6.2
  #     hydro 5 g 10.8
  #     hydro 4 p 4.9
  #     hydro 5 f 10
  #     hydro 1 s 0.8
  #  "Third tier" - improvements: -1.04 meV to -0.20 meV
  #     hydro 3 d 3.9
  #     hydro 3 d 2.7
  #     hydro 5 g 12
  #     hydro 4 p 10.4
  #     hydro 5 f 12.4
  #     hydro 2 s 1.9
  #  "Fourth tier" - improvements: -0.35 meV to -0.06 meV
  #     hydro 4 d 10.4
  #     hydro 4 p 7.2
  #     hydro 4 d 10
  #     hydro 5 g 19.2
  #     hydro 4 s 12
  
  ################################################################################
  #
  #  FHI-aims code project
  #  VB, Fritz-Haber Institut, 2009
  #
  #  Suggested "light" defaults for Cl atom (to be pasted into control.in file)
  #  Be sure to double-check any results obtained with these settings for post-processing,
  #  e.g., with the "tight" defaults and larger basis sets.
  #
  ################################################################################
    species        Cl
  #     global species definitions
      nucleus             17
      mass                35.453
  #
      l_hartree           4
  #
      cut_pot             3.5          1.5  1.0
      basis_dep_cutoff    1e-4
  #
      radial_base         45 5.0
      radial_multiplier   1
      angular_grids       specified
        division   0.4412  110
        division   0.5489  194
        division   0.6734  302
  #      division   0.7794  434
  #      division   0.9402  590
  #      division   1.0779  770
  #      division   1.1792  974
  #      outer_grid  974
        outer_grid  302
  ################################################################################
  #
  #  Definition of "minimal" basis
  #
  ################################################################################
  #     valence basis states
      valence      3  s   2.
      valence      3  p   5.
  #     ion occupancy
      ion_occ      3  s   1.
      ion_occ      3  p   4.
  ################################################################################
  #
  #  Suggested additional basis functions. For production calculations,
  #  uncomment them one after another (the most important basis functions are
  #  listed first).
  #
  #  Constructed for dimers: 1.65 A, 2.0 A, 2.5 A, 3.25 A, 4.0 A
  #
  ################################################################################
  #  "First tier" - improvements: -429.57 meV to -15.03 meV
       ionic 3 d auto
       hydro 2 p 1.9
  #     hydro 4 f 7.4
       ionic 3 s auto
  #     hydro 5 g 10.4
  #  "Second tier" - improvements: -7.84 meV to -0.48 meV
  #     hydro 3 d 3.3
  #     hydro 5 f 9.8
  #     hydro 1 s 0.75
  #     hydro 5 g 11.2
  #     hydro 4 p 10.4
  #  "Third tier" - improvements: -1.00 meV to -0.12 meV
  #     hydro 4 d 12.8
  #     hydro 4 f 4.6
  #     hydro 4 d 10.8
  #     hydro 2 s 1.8
  #     hydro 3 p 3
  #  Further functions that fell out - improvements: -0.10 meV and below
  #     hydro 5 f 14.4
  #     hydro 4 s 12.8
  #     hydro 3 d 11.6
  #     hydro 4 s 4.1
  
  -----------------------------------------------------------------------
  Completed first pass over input file control.in .
  -----------------------------------------------------------------------
  
  
  -----------------------------------------------------------------------
  Parsing geometry.in (first pass over file, find array dimensions only).
  The contents of geometry.in will be repeated verbatim below
  unless switched off by setting 'verbatim_writeout .false.' .
  in the first line of geometry.in .
  -----------------------------------------------------------------------
  
  #=======================================================
  # FHI-aims file: geometry.in.9
  # Created using the Atomic Simulation Environment (ASE)
  # Sat Jul 23 22:56:02 2022
  #=======================================================
  lattice_vector 9.8979997634999997 0.0000000000000000 0.0000000000000000
  lattice_vector 0.0000000000000000 9.8979997634999997 0.0000000000000000
  lattice_vector 0.0000000000000000 0.0000000000000000 9.8979997634999997
  atom 3.7355881000000002 1.6130330700000000 6.4963024100000002 Li
  atom 4.1316825499999998 -0.0424969600000000 2.5379402000000000 Li
  atom 7.0510684699999997 3.3256469100000001 0.4338112400000000 Li
  atom 6.4937837800000002 6.8368489500000003 -0.1222027800000000 Li
  atom 0.4170523800000000 6.3509277099999997 2.7880040600000000 Li
  atom 9.3688955299999996 6.5156967899999998 7.0988544300000003 Li
  atom 0.2255008800000000 2.5978422100000000 6.2775497700000003 Li
  atom 3.3786042500000000 6.9322101900000002 3.8071627100000001 Li
  atom 6.6836301300000001 8.1919760000000004 4.9394112400000001 Li
  atom 5.5088006900000002 2.4177452200000000 2.5908115199999999 Li
  atom 1.7059206700000000 9.0643745899999999 3.4437669500000001 Li
  atom 0.6886889899999999 2.3855314600000002 2.3726562300000000 Li
  atom 7.7351630199999999 -0.0521482600000000 1.5373228200000000 Li
  atom 8.4137890500000001 10.1643229999999996 7.8968061799999996 Li
  atom 1.6143771499999999 8.8186012700000003 7.8216023500000000 Li
  atom 5.6655778999999997 6.1004915500000001 7.8692126599999996 Li
  atom 8.4338053800000008 5.5152952600000003 3.9262283299999998 Li
  atom 0.1794074900000000 9.1668923099999997 1.8399459499999999 Li
  atom 1.4346871900000000 2.1407261900000001 9.5348897899999994 Li
  atom 4.8495574299999999 7.5586878000000004 4.7415451800000001 Li
  atom 0.0081609400000000 -0.0117910800000000 4.9183067100000004 P
  atom 4.8929847700000000 0.0604535500000000 -0.1340192100000000 P
  atom 0.0510094800000000 4.9893822999999999 0.0778722500000000 P
  atom 5.0572051599999996 4.8714473600000003 4.8181855200000001 P
  atom 1.1506171900000000 8.6423898000000001 6.1007710299999998 S
  atom 8.5965499100000002 1.1064078399999999 6.0562356599999996 S
  atom 8.7270295299999994 8.6827929800000003 3.7217594799999998 S
  atom 1.2663170600000000 1.2297058400000000 3.8762679599999998 S
  atom 6.0772003500000000 1.2928268100000000 8.5947161600000008 S
  atom 6.0123846099999998 8.7370763300000007 1.0684056000000000 S
  atom 3.6762799500000001 8.7763089999999995 8.5710134799999995 S
  atom 3.6969616500000000 1.2906963800000000 0.9734614900000000 S
  atom 8.7234750499999993 5.9582073900000001 1.4445069200000000 S
  atom 1.0654511799999999 6.3104565099999999 8.8024172800000002 S
  atom 8.7537265499999997 3.7811655000000002 8.8385333399999997 S
  atom 1.4207658599999999 3.8797812999999999 1.1628748400000000 S
  atom 6.0818337600000003 6.2506537399999997 3.7186957999999999 S
  atom 6.3250500100000000 3.7921890700000001 6.0115254000000000 S
  atom 4.0858136099999998 3.6118473199999999 3.5268009100000000 S
  atom 3.6289256399999998 5.7602658299999998 6.0479883399999999 S
  atom 2.3668205900000001 2.4936749499999999 7.2540696999999996 Cl
  atom 7.3134333600000003 7.5393838000000004 7.4843314599999999 Cl
  atom 4.7367071799999998 -0.2327336200000000 4.8929528400000004 Cl
  atom 5.1615237900000004 5.0305814000000000 -0.2583427600000000 Cl
  atom -0.0497286300000000 0.2602403500000000 0.1663799400000000 Cl
  atom 0.0300422700000000 4.9570735299999997 5.0233017999999996 Cl
  atom 7.5963873000000000 2.3519079600000001 2.4720184900000000 Cl
  atom 2.4716053100000002 7.5248888599999999 2.4620893100000001 Cl
  
  -----------------------------------------------------------------------
  Completed first pass over input file geometry.in .
  -----------------------------------------------------------------------
  

  Basic array size parameters:
  | Number of species                 :        4
  | Number of atoms                   :       48
  | Number of lattice vectors         :        3
  | Max. basis fn. angular momentum   :        2
  | Max. atomic/ionic basis occupied n:        3
  | Max. number of basis fn. types    :        3
  | Max. radial fns per species/type  :        5
  | Max. logarithmic grid size        :     1362
  | Max. radial integration grid size :       45
  | Max. angular integration grid size:      302
  | Max. angular grid division number :        8
  | Radial grid for Hartree potential :     1362
  | Number of spin channels           :        1

------------------------------------------------------------
          Reading file control.in.
------------------------------------------------------------
  XC: Using PBE gradient-corrected functionals.
  Convergence accuracy of total energy:  0.1000E-05
  Convergence accuracy of sum of eigenvalues:  0.1000E-02
  Convergence accuracy of self-consistent charge density:  0.1000E-05
  Convergence accuracy of forces:  0.1000E-03
  Friction is calculated at temperature of   0.3000E+03 K
  Found k-point grid:         3         3         3
 
  Reading configuration options for species Li                  .
  | Found nuclear charge :   3.0000
  | Found atomic mass :    6.94100000000000      amu
  | Found l_max for Hartree potential  :   4
  | Found cutoff potl. onset [A], width [A], scale factor :    3.50000    1.50000    1.00000
  | Threshold for basis-dependent cutoff potential is   0.100000E-03
  | Found data for basic radial integration grid :    29 points, outermost radius =    5.000 A
  | Found multiplier for basic radial grid :   1
  | Found angular grid specification: user-specified.
  | Specified grid contains     4 separate shells.
  | Check grid settings after all constraints further below.
  | Found free-atom valence shell :  2 s   1.000
  | Found free-ion valence shell :  1 s   2.000
  | Found hydrogenic basis function :  2 p   1.600
  | Found hydrogenic basis function :  2 s   2.000
  | Found hydrogenic basis function :  3 d   2.600
  Species Li                  : Missing cutoff potential type.
  Defaulting to exp(1/x)/(1-x)^2 type cutoff potential.
  Species Li: No 'logarithmic' tag. Using default grid for free atom:
  | Default logarithmic grid data [bohr] : 0.1000E-03 0.1000E+03 0.1012E+01
  Species Li: On-site basis accuracy parameter (for Gram-Schmidt orthonormalisation) not specified.
  Using default value basis_acc =  0.1000000E-03.
  Species Li                  : Using default innermost maximum threshold i_radial=  2 for radial functions.
  Species Li                  : Default cutoff onset for free atom density etc. : 0.35000000E+01 AA.
  Species Li                  : Basic radial grid will be enhanced according to radial_multiplier =   1, to contain    29 grid points.
 
  Reading configuration options for species P                   .
  | Found nuclear charge :  15.0000
  | Found atomic mass :    30.9737620000000      amu
  | Found l_max for Hartree potential  :   4
  | Found cutoff potl. onset [A], width [A], scale factor :    3.50000    1.50000    1.00000
  | Threshold for basis-dependent cutoff potential is   0.100000E-03
  | Found data for basic radial integration grid :    43 points, outermost radius =    5.000 A
  | Found multiplier for basic radial grid :   1
  | Found angular grid specification: user-specified.
  | Specified grid contains     5 separate shells.
  | Check grid settings after all constraints further below.
  | Found free-atom valence shell :  3 s   2.000
  | Found free-atom valence shell :  3 p   3.000
  | Found free-ion valence shell :  3 s   1.000
  | Found free-ion valence shell :  3 p   2.000
  | Found ionic basis function :  3 d , default cutoff radius.
  | Found ionic basis function :  3 p , default cutoff radius.
  | Found ionic basis function :  3 s , default cutoff radius.
  Species P                   : Missing cutoff potential type.
  Defaulting to exp(1/x)/(1-x)^2 type cutoff potential.
  Species P : No 'logarithmic' tag. Using default grid for free atom:
  | Default logarithmic grid data [bohr] : 0.1000E-03 0.1000E+03 0.1012E+01
  | Will include ionic basis functions of  2.0-fold positive P                    ion.
  Species P : On-site basis accuracy parameter (for Gram-Schmidt orthonormalisation) not specified.
  Using default value basis_acc =  0.1000000E-03.
  Species P                   : Using default innermost maximum threshold i_radial=  2 for radial functions.
  Species P                   : Default cutoff onset for free atom density etc. : 0.35000000E+01 AA.
  Species P                   : Basic radial grid will be enhanced according to radial_multiplier =   1, to contain    43 grid points.
 
  Reading configuration options for species S                   .
  | Found nuclear charge :  16.0000
  | Found atomic mass :    32.0650000000000      amu
  | Found l_max for Hartree potential  :   4
  | Found cutoff potl. onset [A], width [A], scale factor :    3.50000    1.50000    1.00000
  | Threshold for basis-dependent cutoff potential is   0.100000E-03
  | Found data for basic radial integration grid :    44 points, outermost radius =    5.000 A
  | Found multiplier for basic radial grid :   1
  | Found angular grid specification: user-specified.
  | Specified grid contains     4 separate shells.
  | Check grid settings after all constraints further below.
  | Found free-atom valence shell :  3 s   2.000
  | Found free-atom valence shell :  3 p   4.000
  | Found free-ion valence shell :  3 s   1.000
  | Found free-ion valence shell :  3 p   3.000
  | Found ionic basis function :  3 d , default cutoff radius.
  | Found hydrogenic basis function :  2 p   1.800
  | Found ionic basis function :  3 s , default cutoff radius.
  Species S                   : Missing cutoff potential type.
  Defaulting to exp(1/x)/(1-x)^2 type cutoff potential.
  Species S : No 'logarithmic' tag. Using default grid for free atom:
  | Default logarithmic grid data [bohr] : 0.1000E-03 0.1000E+03 0.1012E+01
  | Will include ionic basis functions of  2.0-fold positive S                    ion.
  Species S : On-site basis accuracy parameter (for Gram-Schmidt orthonormalisation) not specified.
  Using default value basis_acc =  0.1000000E-03.
  Species S                   : Using default innermost maximum threshold i_radial=  2 for radial functions.
  Species S                   : Default cutoff onset for free atom density etc. : 0.35000000E+01 AA.
  Species S                   : Basic radial grid will be enhanced according to radial_multiplier =   1, to contain    44 grid points.
 
  Reading configuration options for species Cl                  .
  | Found nuclear charge :  17.0000
  | Found atomic mass :    35.4530000000000      amu
  | Found l_max for Hartree potential  :   4
  | Found cutoff potl. onset [A], width [A], scale factor :    3.50000    1.50000    1.00000
  | Threshold for basis-dependent cutoff potential is   0.100000E-03
  | Found data for basic radial integration grid :    45 points, outermost radius =    5.000 A
  | Found multiplier for basic radial grid :   1
  | Found angular grid specification: user-specified.
  | Specified grid contains     4 separate shells.
  | Check grid settings after all constraints further below.
  | Found free-atom valence shell :  3 s   2.000
  | Found free-atom valence shell :  3 p   5.000
  | Found free-ion valence shell :  3 s   1.000
  | Found free-ion valence shell :  3 p   4.000
  | Found ionic basis function :  3 d , default cutoff radius.
  | Found hydrogenic basis function :  2 p   1.900
  | Found ionic basis function :  3 s , default cutoff radius.
  Species Cl                  : Missing cutoff potential type.
  Defaulting to exp(1/x)/(1-x)^2 type cutoff potential.
  Species Cl: No 'logarithmic' tag. Using default grid for free atom:
  | Default logarithmic grid data [bohr] : 0.1000E-03 0.1000E+03 0.1012E+01
  | Will include ionic basis functions of  2.0-fold positive Cl                   ion.
  Species Cl: On-site basis accuracy parameter (for Gram-Schmidt orthonormalisation) not specified.
  Using default value basis_acc =  0.1000000E-03.
  Species Cl                  : Using default innermost maximum threshold i_radial=  2 for radial functions.
  Species Cl                  : Default cutoff onset for free atom density etc. : 0.35000000E+01 AA.
  Species Cl                  : Basic radial grid will be enhanced according to radial_multiplier =   1, to contain    45 grid points.
 
  Finished reading input file 'control.in'. Consistency checks are next.
 
  MPI_IN_PLACE appears to work with this MPI implementation.
  | Keeping use_mpi_in_place .true. (see manual).
  Target number of points in a grid batch is not set. Defaulting to  100
  Method for grid partitioning is not set. Defaulting to parallel hash+maxmin partitioning.
  Batch size limit is not set. Defaulting to    200
  By default, will store active basis functions for each batch.
  If in need of memory, prune_basis_once .false. can be used to disable this option.
  communication_type for Hartree potential was not specified.
  Defaulting to calc_hartree .
  Defaulting to Pulay charge density mixer.
  Pulay mixer: Number of relevant iterations not set.
  Defaulting to    8 iterations.
  Pulay mixer: Number of initial linear mixing iterations not set.
  Defaulting to    0 iterations.
  Work space size for distributed Hartree potential not set.
  Defaulting to   0.200000E+03 MB.
  Mixing parameter for charge density mixing has not been set.
  Using default: charge_mix_param =     0.0500.
  The mixing parameter will be adjusted in iteration number     2 of the first full s.c.f. cycle only.
  Algorithm-dependent basis array size parameters:
  | n_max_pulay                         :        8
  Maximum number of self-consistency iterations not provided.
  Presetting  1000 iterations.
  Presetting      1001 iterations before the initial mixing cycle
  is restarted anyway using the sc_init_iter criterion / keyword.
  Presetting a factor      1.000 between actual scf density residual
  and density convergence criterion sc_accuracy_rho below which sc_init_iter
  takes no effect.
  Geometry relaxation not requested: no relaxation will be performed.
  Handling of forces: Unphysical translation and rotation will be removed from forces.
  No accuracy limit for integral partition fn. given. Defaulting to  0.1000E-14.
  No threshold value for u(r) in integrations given. Defaulting to  0.1000E-05.
  No occupation type (smearing scheme) given. Defaulting to Gaussian broadening, width =  0.1000E-01 eV.
  The width will be adjusted in iteration number     2 of the first full s.c.f. cycle only.
  S.C.F. convergence parameters will be adjusted in iteration number     2 of the first full s.c.f. cycle only.
  No accuracy for occupation numbers given. Defaulting to  0.1000E-12.
  No threshold value for occupation numbers given. Defaulting to  0.0000E+00.
  No accuracy for fermi level given. Defaulting to  0.1000E-19.
  Maximum # of iterations to find E_F not set. Defaulting to  200.
  Preferred method for the eigenvalue solver ('KS_method') not specified in 'control.in'.
  Defaulting to serial version, 'lapack_fast', since more k-points than CPUs available.
  Will not use alltoall communication since running on < 1024 CPUs.
  Threshold for basis singularities not set.
  Default threshold for basis singularities:  0.1000E-04
  partition_type (choice of integration weights) for integrals was not specified.
  | Using a version of the partition function of Stratmann and coworkers ('stratmann_smoother').
  | At each grid point, the set of atoms used to build the partition table is smoothly restricted to
  | only those atoms whose free-atom density would be non-zero at that grid point.
  Partitioning for Hartree potential was not defined. Using partition_type for integrals.
  | Adjusted default value of keyword multip_moments_threshold to:       0.10000000E-11
  | This value may affect high angular momentum components of the Hartree potential in periodic systems.
  Spin handling was not defined in control.in. Defaulting to unpolarized case.
  Angular momentum expansion for Kerker preconditioner not set explicitly.
  | Using default value of   0
  No explicit requirement for turning off preconditioner.
  | By default, it will be turned off when the charge convergence reaches
  | sc_accuracy_rho  =   0.100000E-05
  | sc_accuracy_eev  =   0.100000E-02
  | sc_accuracy_etot =   0.100000E-05
  No special mixing parameter while Kerker preconditioner is on.
  Using default: charge_mix_param =     0.0500.
  No q(lm)/r^(l+1) cutoff set for long-range Hartree potential.
  | Using default value of  0.100000E-09 .
  | Verify using the multipole_threshold keyword.
  Defaulting to new monopole extrapolation.
  Density update method: automatic selection selected.
  Using density matrix based charge density update.
  Using density matrix based charge density update.
  Using packed matrix style: index .
  Defaulting to use time-reversal symmetry for k-point grid.
------------------------------------------------------------


------------------------------------------------------------
          Reading geometry description geometry.in.
------------------------------------------------------------
 * Warning! You did not set the 'relativistic' flag in input file 'control.in'.
 * Since you are not attempting to treat any elements beyond Ca(Z=20), FHI-aims
 * will default to 'relativistic none'.
 * You must ensure that this is really what you want!!
 * For example, DO NOT compute total-energy differences between results from
 * different settings of the 'relativistic' flag.
  Input structure read successfully.
  The structure contains       48 atoms,  and a total of        512.000 electrons.

  Input geometry:
  | Unit cell:
  |        9.89799976        0.00000000        0.00000000
  |        0.00000000        9.89799976        0.00000000
  |        0.00000000        0.00000000        9.89799976
  | Atomic structure:
  |       Atom                x [A]            y [A]            z [A]
  |    1: Species Li            3.73558810        1.61303307        6.49630241
  |    2: Species Li            4.13168255       -0.04249696        2.53794020
  |    3: Species Li            7.05106847        3.32564691        0.43381124
  |    4: Species Li            6.49378378        6.83684895       -0.12220278
  |    5: Species Li            0.41705238        6.35092771        2.78800406
  |    6: Species Li            9.36889553        6.51569679        7.09885443
  |    7: Species Li            0.22550088        2.59784221        6.27754977
  |    8: Species Li            3.37860425        6.93221019        3.80716271
  |    9: Species Li            6.68363013        8.19197600        4.93941124
  |   10: Species Li            5.50880069        2.41774522        2.59081152
  |   11: Species Li            1.70592067        9.06437459        3.44376695
  |   12: Species Li            0.68868899        2.38553146        2.37265623
  |   13: Species Li            7.73516302       -0.05214826        1.53732282
  |   14: Species Li            8.41378905       10.16432300        7.89680618
  |   15: Species Li            1.61437715        8.81860127        7.82160235
  |   16: Species Li            5.66557790        6.10049155        7.86921266
  |   17: Species Li            8.43380538        5.51529526        3.92622833
  |   18: Species Li            0.17940749        9.16689231        1.83994595
  |   19: Species Li            1.43468719        2.14072619        9.53488979
  |   20: Species Li            4.84955743        7.55868780        4.74154518
  |   21: Species P             0.00816094       -0.01179108        4.91830671
  |   22: Species P             4.89298477        0.06045355       -0.13401921
  |   23: Species P             0.05100948        4.98938230        0.07787225
  |   24: Species P             5.05720516        4.87144736        4.81818552
  |   25: Species S             1.15061719        8.64238980        6.10077103
  |   26: Species S             8.59654991        1.10640784        6.05623566
  |   27: Species S             8.72702953        8.68279298        3.72175948
  |   28: Species S             1.26631706        1.22970584        3.87626796
  |   29: Species S             6.07720035        1.29282681        8.59471616
  |   30: Species S             6.01238461        8.73707633        1.06840560
  |   31: Species S             3.67627995        8.77630900        8.57101348
  |   32: Species S             3.69696165        1.29069638        0.97346149
  |   33: Species S             8.72347505        5.95820739        1.44450692
  |   34: Species S             1.06545118        6.31045651        8.80241728
  |   35: Species S             8.75372655        3.78116550        8.83853334
  |   36: Species S             1.42076586        3.87978130        1.16287484
  |   37: Species S             6.08183376        6.25065374        3.71869580
  |   38: Species S             6.32505001        3.79218907        6.01152540
  |   39: Species S             4.08581361        3.61184732        3.52680091
  |   40: Species S             3.62892564        5.76026583        6.04798834
  |   41: Species Cl            2.36682059        2.49367495        7.25406970
  |   42: Species Cl            7.31343336        7.53938380        7.48433146
  |   43: Species Cl            4.73670718       -0.23273362        4.89295284
  |   44: Species Cl            5.16152379        5.03058140       -0.25834276
  |   45: Species Cl           -0.04972863        0.26024035        0.16637994
  |   46: Species Cl            0.03004227        4.95707353        5.02330180
  |   47: Species Cl            7.59638730        2.35190796        2.47201849
  |   48: Species Cl            2.47160531        7.52488886        2.46208931

  Lattice parameters for 3D lattice (in Angstroms) :     9.898000    9.898000    9.898000
  Angle(s) between unit vectors (in degrees)      :    90.000000   90.000000   90.000000

  |

  | The smallest distance between any two atoms is         1.72717617 AA.
  |
  | The first atom of this pair is atom number                      8 .
  | The second atom of this pair is atom number                    48 .
  | Wigner-Seitz cell of the first atom image           0     0     0 .
  | (The Wigner-Seitz cell of the second atom is 0 0 0  by definition.)

  Symmetry information by spglib:
  | Precision set to  0.1E-04
  | Number of Operations  : 1
  | Space group           : 1
  | International         : P1
  | Schoenflies           : C1^1

  Quantities derived from the lattice vectors:
  | Reciprocal lattice vector 1:  0.634793  0.000000  0.000000
  | Reciprocal lattice vector 2:  0.000000  0.634793  0.000000
  | Reciprocal lattice vector 3:  0.000000  0.000000  0.634793
  | Unit cell volume                               :   0.969711E+03  A^3

  Range separation radius for Ewald summation (hartree_convergence_parameter):      3.90166475 bohr.

  Fractional coordinates:
                         L1                L2                L3
       atom_frac         0.37740838        0.16296556        0.65632477  Li
       atom_frac         0.41742601       -0.00429349        0.25640940  Li
       atom_frac         0.71237307        0.33599182        0.04382817  Li
       atom_frac         0.65607031        0.69073036       -0.01234621  Li
       atom_frac         0.04213502        0.64163749        0.28167348  Li
       atom_frac         0.94654433        0.65828419        0.71720091  Li
       atom_frac         0.02278247        0.26246133        0.63422408  Li
       atom_frac         0.34134212        0.70036476        0.38463960  Li
       atom_frac         0.67525058        0.82763954        0.49903125  Li
       atom_frac         0.55655696        0.24426604        0.26175102  Li
       atom_frac         0.17235004        0.91577842        0.34792554  Li
       atom_frac         0.06957860        0.24101147        0.23971068  Li
       atom_frac         0.78148749       -0.00526857        0.15531651  Li
       atom_frac         0.85004943        1.02690677        0.79781838  Li
       atom_frac         0.16310135        0.89094782        0.79022050  Li
       atom_frac         0.57239625        0.61633579        0.79503060  Li
       atom_frac         0.85207169        0.55721311        0.39666886  Li
       atom_frac         0.01812563        0.92613584        0.18589068  Li
       atom_frac         0.14494718        0.21627867        0.96331481  Li
       atom_frac         0.48995328        0.76365811        0.47904074  Li
       atom_frac         0.00082450       -0.00119126        0.49689905  P
       atom_frac         0.49434076        0.00610765       -0.01354003  P
       atom_frac         0.00515351        0.50407986        0.00786747  P
       atom_frac         0.51093203        0.49216483        0.48678376  P
       atom_frac         0.11624745        0.87314508        0.61636403  S
       atom_frac         0.86851385        0.11178095        0.61186460  S
       atom_frac         0.88169628        0.87722703        0.37601127  S
       atom_frac         0.12793666        0.12423781        0.39162134  S
       atom_frac         0.61398267        0.13061496        0.86832859  S
       atom_frac         0.60743431        0.88271131        0.10794157  S
       atom_frac         0.37141645        0.88667501        0.86593389  S
       atom_frac         0.37350593        0.13039972        0.09834931  S
       atom_frac         0.88133716        0.60196075        0.14593928  S
       atom_frac         0.10764308        0.63754866        0.88931274  S
       atom_frac         0.88439349        0.38201309        0.89296156  S
       atom_frac         0.14354070        0.39197630        0.11748584  S
       atom_frac         0.61445079        0.63150676        0.37570175  S
       atom_frac         0.63902305        0.38312681        0.60734750  S
       atom_frac         0.41279185        0.36490679        0.35631451  S
       atom_frac         0.36663222        0.58196262        0.61103137  S
       atom_frac         0.23912110        0.25193726        0.73288239  Cl
       atom_frac         0.73887993        0.76170782        0.75614585  Cl
       atom_frac         0.47855196       -0.02351320        0.49433754  Cl
       atom_frac         0.52147140        0.50824222       -0.02610050  Cl
       atom_frac        -0.00502411        0.02629222        0.01680945  Cl
       atom_frac         0.00303519        0.50081568        0.50750676  Cl
       atom_frac         0.76746691        0.23761447        0.24974930  Cl
       atom_frac         0.24970755        0.76024339        0.24874615  Cl

  Number of empty states per atom not set in control.in - providing a guess from actual geometry.
  | Total number of empty states used during s.c.f. cycle:      114
  If you use a very high smearing, use empty_states (per atom!) in control.in to increase this value.

  Structure-dependent array size parameters: 
  | Maximum number of distinct radial functions  :       29
  | Maximum number of basis functions            :      724
  | Number of Kohn-Sham states (occupied + empty):      370
------------------------------------------------------------

------------------------------------------------------------
          Preparing all fixed parts of the calculation.
------------------------------------------------------------
  Determining machine precision:
    2.225073858507201E-308
  Setting up grids for atomic and cluster calculations.

  Creating wave function, potential, and density for free atoms.

  Species: Li

  List of occupied orbitals and eigenvalues:
    n    l              occ      energy [Ha]    energy [eV]
    1    0           2.0000        -1.876896       -51.0729
    2    0           1.0000        -0.084105        -2.2886


  Species: P

  List of occupied orbitals and eigenvalues:
    n    l              occ      energy [Ha]    energy [eV]
    1    0           2.0000       -76.351489     -2077.6297
    2    0           2.0000        -6.353717      -172.8934
    3    0           2.0000        -0.506059       -13.7706
    2    1           6.0000        -4.569386      -124.3393
    3    1           3.0000        -0.198107        -5.3908


  Species: S

  List of occupied orbitals and eigenvalues:
    n    l              occ      energy [Ha]    energy [eV]
    1    0           2.0000       -88.105825     -2397.4815
    2    0           2.0000        -7.730144      -210.3479
    3    0           2.0000        -0.627748       -17.0819
    2    1           6.0000        -5.747971      -156.4103
    3    1           4.0000        -0.255786        -6.9603


  Species: Cl

  List of occupied orbitals and eigenvalues:
    n    l              occ      energy [Ha]    energy [eV]
    1    0           2.0000      -100.709620     -2740.4482
    2    0           2.0000        -9.221874      -250.9399
    3    0           2.0000        -0.753366       -20.5001
    2    1           6.0000        -7.038743      -191.5339
    3    1           5.0000        -0.315359        -8.5813

  Creating fixed part of basis set: Ionic, confined, hydrogenic.
 
  Li                   hydrogenic:
 
  List of hydrogenic basis orbitals: 
    n    l      effective z      eigenvalue [eV]  inner max. [A]     outer max. [A]     outer radius [A]   
    2    1         1.600000        -8.6069           1.303334           1.303334           4.591005
    2    0         2.000000       -13.5631           0.203259           1.385485           4.591005
    3    2         2.600000        -9.9241           1.769240           1.769240           4.591005
 
 
  P                    ion:

  List of free ionic orbitals and eigenvalues:
    n    l      energy [Ha]    energy [eV]
    1    0       -77.297133     -2103.3620
    2    0        -7.273914      -197.9333
    3    0        -1.267536       -34.4914
    2    1        -5.491316      -149.4263
    3    1        -0.913470       -24.8568


  List of ionic basis orbitals and eigenvalues:
    n    l      energy [Ha]    energy [eV]    outer radius [A]
    3    2        -0.457308       -12.4440       4.554583
    3    1        -0.913443       -24.8560       4.337222
    3    0        -1.267519       -34.4910       3.885335

 
  S                    ion:

  List of free ionic orbitals and eigenvalues:
    n    l      energy [Ha]    energy [eV]
    1    0       -89.127201     -2425.2745
    2    0        -8.724378      -237.4024
    3    0        -1.464668       -39.8556
    2    1        -6.744348      -183.5230
    3    1        -1.048520       -28.5317


  List of ionic basis orbitals and eigenvalues:
    n    l      energy [Ha]    energy [eV]    outer radius [A]
    3    2        -0.496135       -13.5005       4.539062
    3    0        -1.464653       -39.8552       3.642502

 
  S                    hydrogenic:
 
  List of hydrogenic basis orbitals: 
    n    l      effective z      eigenvalue [eV]  inner max. [A]     outer max. [A]     outer radius [A]   
    2    1         1.800000       -10.9749           1.168531           1.168531           4.594893
 
 
  Cl                   ion:

  List of free ionic orbitals and eigenvalues:
    n    l      energy [Ha]    energy [eV]
    1    0      -101.807232     -2770.3157
    2    0       -10.290876      -280.0290
    3    0        -1.664625       -45.2967
    2    1        -8.110237      -220.6908
    3    1        -1.183915       -32.2160


  List of ionic basis orbitals and eigenvalues:
    n    l      energy [Ha]    energy [eV]    outer radius [A]
    3    2        -0.529186       -14.3999       4.541334
    3    0        -1.664610       -45.2963       3.428237

 
  Cl                   hydrogenic:
 
  List of hydrogenic basis orbitals: 
    n    l      effective z      eigenvalue [eV]  inner max. [A]     outer max. [A]     outer radius [A]   
    2    1         1.900000       -12.2492           1.113321           1.113321           4.597192
 

  Adding cutoff potential to free-atom effective potential.
  Creating atomic-like basis functions for current effective potential.

  Species Li                  :

  List of atomic basis orbitals and eigenvalues:
    n    l      energy [Ha]    energy [eV]    outer radius [A]
    1    0        -1.876896       -51.0729       4.062706
    2    0        -0.084105        -2.2886       4.591005


  Species P                   :

  List of atomic basis orbitals and eigenvalues:
    n    l      energy [Ha]    energy [eV]    outer radius [A]
    1    0       -76.351489     -2077.6297       0.736837
    2    0        -6.353717      -172.8934       2.532824
    3    0        -0.506059       -13.7706       4.499242
    2    1        -4.569386      -124.3393       2.862183
    3    1        -0.198107        -5.3908       4.554583


  Species S                   :

  List of atomic basis orbitals and eigenvalues:
    n    l      energy [Ha]    energy [eV]    outer radius [A]
    1    0       -88.105825     -2397.4815       0.682391
    2    0        -7.730144      -210.3479       2.317169
    3    0        -0.627748       -17.0819       4.483910
    2    1        -5.747971      -156.4103       2.555240
    3    1        -0.255786        -6.9603       4.539062


  Species Cl                  :

  List of atomic basis orbitals and eigenvalues:
    n    l      energy [Ha]    energy [eV]    outer radius [A]
    1    0      -100.709620     -2740.4482       0.642251
    2    0        -9.221874      -250.9399       2.128190
    3    0        -0.753366       -20.5001       4.431645
    2    1        -7.038743      -191.5339       2.346844
    3    1        -0.315359        -8.5813       4.541334

  Assembling full basis from fixed parts.
  | Species Li :   atomic orbital   1 s accepted.
  | Species Li :   atomic orbital   2 s accepted.
  | Species Li :    hydro orbital   2 s accepted.
  | Species Li :    hydro orbital   2 p accepted.
  | Species Li :    hydro orbital   3 d accepted.
  | Species P :   atomic orbital   1 s accepted.
  | Species P :   atomic orbital   2 s accepted.
  | Species P :    ionic orbital   3 s accepted.
  | Species P :   atomic orbital   3 s accepted.
  | Species P :   atomic orbital   2 p accepted.
  | Species P :    ionic orbital   3 p accepted.
  | Species P :   atomic orbital   3 p accepted.
  | Species P :    ionic orbital   3 d accepted.
  | Species S :   atomic orbital   1 s accepted.
  | Species S :   atomic orbital   2 s accepted.
  | Species S :    ionic orbital   3 s accepted.
  | Species S :   atomic orbital   3 s accepted.
  | Species S :   atomic orbital   2 p accepted.
  | Species S :   atomic orbital   3 p accepted.
  | Species S :    hydro orbital   2 p accepted.
  | Species S :    ionic orbital   3 d accepted.
  | Species Cl :   atomic orbital   1 s accepted.
  | Species Cl :   atomic orbital   2 s accepted.
  | Species Cl :    ionic orbital   3 s accepted.
  | Species Cl :   atomic orbital   3 s accepted.
  | Species Cl :   atomic orbital   2 p accepted.
  | Species Cl :   atomic orbital   3 p accepted.
  | Species Cl :    hydro orbital   2 p accepted.
  | Species Cl :    ionic orbital   3 d accepted.
 
  Basis size parameters after reduction:
  | Total number of radial functions:       29
  | Total number of basis functions :      724
 
  Per-task memory consumption for arrays in subroutine allocate_ext:
  |           7.605768MB.
  Testing on-site integration grid accuracy.
  |  Species  Function  <phi|h_atom|phi> (log., in eV)  <phi|h_atom|phi> (rad., in eV)
           1        1                -51.0729407432                -51.0729328795
           1        2                 -2.3261068990                 -2.3227046518
           1        3                 17.1966930198                 17.2358027191 ***
           1        4                  0.3867256281                  0.3982841734
           1        5                  6.2743141416                  6.2817896417
           2        6              -2077.6297159538              -2077.6288551184
           2        7               -172.8934457906               -172.8934403880
           2        8                -13.4653967551                -13.4655200798
           2        9                  6.4162845277                  6.4013396720
           2       10               -124.3393201040               -124.3393200061
           2       11                 -4.7560266034                 -4.7560495157
           2       12                  6.5873401476                  6.4958904717 ***
           2       13                  5.2911719464                  5.2826493609
           3       14              -2397.4814915323              -2397.4804563634
           3       15               -210.3479335736               -210.3479265952
           3       16                -16.8079362322                -16.8079092816
           3       17                  7.5772439785                  7.5675998324
           3       18               -156.4102581151               -156.4102580951
           3       19                 -6.9617737483                 -6.9640288036
           3       20                  7.5696988470                  7.5151244831 ***
           3       21                  6.0973034823                  6.0928113248
           4       22              -2740.4481953768              -2740.4469735573
           4       23               -250.9399497423               -250.9399403187
           4       24                -20.2462734235                -20.2462512680
           4       25                  8.9460051782                  8.9510436705
           4       26               -191.5339459398               -191.5339455009
           4       27                 -8.5819075957                 -8.5827488985
           4       28                  8.1339828089                  8.0979459360 ***
           4       29                  7.0302175114                  7.0277664253
 * Note: Onsite integrals marked "***" above are less accurate than
 * onsite_accuracy_threshold =    0.03000 eV. Usually, this is harmless.
 * When in doubt, tighten the "radial" and/or "radial_multiplier" flags to check.

  Preparing densities etc. for the partition functions (integrals / Hartree potential).

  Preparations completed.
  max(cpu_time)          :      0.411 s.
  Wall clock time (cpu1) :      0.422 s.
------------------------------------------------------------

------------------------------------------------------------
          Begin self-consistency loop: Initialization.

          Date     :  20220723, Time     :  171359.941
------------------------------------------------------------

  Initializing index lists of integration centers etc. from given atomic structure:
  Mapping all atomic coordinates to central unit cell.

  Initializing the k-points
          Using symmetry for reducing the k-points
  | k-points reduced from:       27 to       14
  | Number of k-points                             :        14
  The eigenvectors in the calculations are COMPLEX.
  | K-points in task   0:         0
  | K-points in task   1:         1
  | K-points in task   2:         1
  | K-points in task   3:         1
  | K-points in task   4:         1
  | K-points in task   5:         1
  | K-points in task   6:         1
  | K-points in task   7:         1
  | K-points in task   8:         1
  | K-points in task   9:         1
  | K-points in task  10:         1
  | K-points in task  11:         1
  | K-points in task  12:         1
  | K-points in task  13:         1
  | K-points in task  14:         1
  | K-points in task  15:         0
  | K-points in task  16:         0
  | K-points in task  17:         0
  | K-points in task  18:         0
  | K-points in task  19:         0
  | Number of basis functions in the Hamiltonian integrals :      3920
  | Number of basis functions in a single unit cell        :       724
  | Number of centers in hartree potential         :      1728
  | Number of centers in hartree multipole         :       915
  | Number of centers in electron density summation:       724
  | Number of centers in basis integrals           :       757
  | Number of centers in integrals                 :       340
  | Number of centers in hamiltonian               :       728
  | Consuming          6 KiB for k_phase.
  | Number of super-cells (origin) [n_cells]                     :         125
  | Number of super-cells (after PM_index) [n_cells]             :          28
  | Number of super-cells in hamiltonian [n_cells_in_hamiltonian]:          28
  | Size of matrix packed + index [n_hamiltonian_matrix_size] :      740899
  Partitioning the integration grid into batches with parallel hashing+maxmin method.
  | Number of batches:     4456
  | Maximal batch size:     165
  | Minimal batch size:      59
  | Average batch size:      80.636
  | Standard deviation of batch sizes:      13.147

  Integration load balanced across    20 MPI tasks.
  Work distribution over tasks is as follows:
  Task     0 has      17933 integration points.
  Task     1 has      18000 integration points.
  Task     2 has      17946 integration points.
  Task     3 has      17941 integration points.
  Task     4 has      17964 integration points.
  Task     5 has      17969 integration points.
  Task     6 has      17922 integration points.
  Task     7 has      17971 integration points.
  Task     8 has      17959 integration points.
  Task     9 has      17965 integration points.
  Task    10 has      17992 integration points.
  Task    11 has      17984 integration points.
  Task    12 has      17974 integration points.
  Task    13 has      17931 integration points.
  Task    14 has      17992 integration points.
  Task    15 has      17959 integration points.
  Task    16 has      17979 integration points.
  Task    17 has      17968 integration points.
  Task    18 has      17979 integration points.
  Task    19 has      17984 integration points.
  Initializing partition tables, free-atom densities, potentials, etc. across the integration grid (initialize_grid_storage).
  | initialize_grid_storage: Actual outermost partition radius vs. multipole_radius_free
  | (-- VB: in principle, multipole_radius_free should be larger, hence this output)
  | Species        1: Confinement radius =              4.999999999999999 AA, multipole_radius_free =              5.001180127821857 AA.
  | Species        1: outer_partition_radius set to              5.001180127821857 AA .
  | Species        2: Confinement radius =              4.999999999999999 AA, multipole_radius_free =              5.022530438398565 AA.
  | Species        2: outer_partition_radius set to              5.022530438398565 AA .
  | Species        3: Confinement radius =              4.999999999999999 AA, multipole_radius_free =              5.005414751018925 AA.
  | Species        3: outer_partition_radius set to              5.005414751018925 AA .
  | Species        4: Confinement radius =              4.999999999999999 AA, multipole_radius_free =              5.007919576009533 AA.
  | Species        4: outer_partition_radius set to              5.007919576009533 AA .
  | Original list of interatomic distances with         757 x        757 entries is created.
  | Net number of integration points:   359312
  | of which are non-zero points    :   323623
  | Numerical average free-atom electrostatic potential    :     -9.55338242 eV
  Renormalizing the initial density to the exact electron count on the 3D integration grid.
  | Initial density: Formal number of electrons (from input files) :     512.0000000000
  | Integrated number of electrons on 3D grid     :     511.9992255390
  | Charge integration error                      :      -0.0007744610
  | Normalization factor for density and gradient :       1.0000015126
  Obtaining max. number of non-zero basis functions in each batch (get_n_compute_maxes).
  | Maximal number of non-zero basis functions:      419 in task     0
  | Maximal number of non-zero basis functions:      425 in task     1
  | Maximal number of non-zero basis functions:      455 in task     2
  | Maximal number of non-zero basis functions:      425 in task     3
  | Maximal number of non-zero basis functions:      423 in task     4
  | Maximal number of non-zero basis functions:      430 in task     5
  | Maximal number of non-zero basis functions:      433 in task     6
  | Maximal number of non-zero basis functions:      431 in task     7
  | Maximal number of non-zero basis functions:      412 in task     8
  | Maximal number of non-zero basis functions:      424 in task     9
  | Maximal number of non-zero basis functions:      427 in task    10
  | Maximal number of non-zero basis functions:      425 in task    11
  | Maximal number of non-zero basis functions:      429 in task    12
  | Maximal number of non-zero basis functions:      445 in task    13
  | Maximal number of non-zero basis functions:      461 in task    14
  | Maximal number of non-zero basis functions:      427 in task    15
  | Maximal number of non-zero basis functions:      442 in task    16
  | Maximal number of non-zero basis functions:      438 in task    17
  | Maximal number of non-zero basis functions:      412 in task    18
  | Maximal number of non-zero basis functions:      417 in task    19
  Allocating        0.000 MB for KS_eigenvector_complex
  Integrating Hamiltonian matrix: batch-based integration.
  Time summed over all CPUs for integration: real work       13.015 s, elapsed       13.157 s
  Integrating overlap matrix.
  Time summed over all CPUs for integration: real work        8.830 s, elapsed        8.960 s
  Decreasing sparse matrix size:
   Tolerance:  9.999999824516700E-014
   Hamiltonian matrix
  | Array has   657806 nonzero elements out of   740899 elements
  | Sparsity factor is 0.112
   Overlap matrix
  | Array has   616475 nonzero elements out of   740899 elements
  | Sparsity factor is 0.168
  New size of hamiltonian matrix:      657808

  Updating Kohn-Sham eigenvalues and eigenvectors using ELSI and the ELPA eigensolver.

  Obtaining occupation numbers and chemical potential using ELSI.
  | Chemical potential (Fermi level):    -7.29369250eV
  Writing Kohn-Sham eigenvalues.
  K-point:       1 at    0.000000    0.000000    0.000000 (in units of recip. lattice)

  State    Occupation    Eigenvalue [Ha]    Eigenvalue [eV]
      1       2.00000        -100.774640        -2742.21747
      2       2.00000        -100.752017        -2741.60187
      3       2.00000        -100.742624        -2741.34627
      4       2.00000        -100.738705        -2741.23964
      5       2.00000        -100.736238        -2741.17251
      6       2.00000        -100.735180        -2741.14373
      7       2.00000        -100.734338        -2741.12080
      8       2.00000        -100.733861        -2741.10782
      9       2.00000         -88.150423        -2398.69507
     10       2.00000         -88.148879        -2398.65303
     11       2.00000         -88.144863        -2398.54376
     12       2.00000         -88.144397        -2398.53108
     13       2.00000         -88.140922        -2398.43651
     14       2.00000         -88.139161        -2398.38860
     15       2.00000         -88.134550        -2398.26314
     16       2.00000         -88.133701        -2398.24003
     17       2.00000         -88.131840        -2398.18937
     18       2.00000         -88.131104        -2398.16936
     19       2.00000         -88.126238        -2398.03696
     20       2.00000         -88.125401        -2398.01416
     21       2.00000         -88.124905        -2398.00067
     22       2.00000         -88.124316        -2397.98464
     23       2.00000         -88.119689        -2397.85875
     24       2.00000         -88.116967        -2397.78467
     25       2.00000         -76.384163        -2078.51883
     26       2.00000         -76.381216        -2078.43865
     27       2.00000         -76.378972        -2078.37758
     28       2.00000         -76.378385        -2078.36161
     29       2.00000          -9.290141         -252.79759
     30       2.00000          -9.266443         -252.15274
     31       2.00000          -9.257085         -251.89809
     32       2.00000          -9.252790         -251.78122
     33       2.00000          -9.250472         -251.71816
     34       2.00000          -9.249210         -251.68380
     35       2.00000          -9.248237         -251.65732
     36       2.00000          -9.248011         -251.65117
     37       2.00000          -7.778190         -211.65533
     38       2.00000          -7.776988         -211.62260
     39       2.00000          -7.772543         -211.50166
     40       2.00000          -7.772517         -211.50094
     41       2.00000          -7.768648         -211.39566
     42       2.00000          -7.766621         -211.34052
     43       2.00000          -7.761935         -211.21299
     44       2.00000          -7.760992         -211.18734
     45       2.00000          -7.759343         -211.14247
     46       2.00000          -7.757984         -211.10549
     47       2.00000          -7.752829         -210.96522
     48       2.00000          -7.752141         -210.94648
     49       2.00000          -7.751656         -210.93329
     50       2.00000          -7.751046         -210.91668
     51       2.00000          -7.746053         -210.78084
     52       2.00000          -7.743030         -210.69856
     53       2.00000          -7.107840         -193.41415
     54       2.00000          -7.106313         -193.37261
     55       2.00000          -7.105339         -193.34611
     56       2.00000          -7.084777         -192.78660
     57       2.00000          -7.082364         -192.72094
     58       2.00000          -7.081853         -192.70704
     59       2.00000          -7.074863         -192.51682
     60       2.00000          -7.073307         -192.47448
     61       2.00000          -7.072789         -192.46038
     62       2.00000          -7.070590         -192.40056
     63       2.00000          -7.068823         -192.35247
     64       2.00000          -7.068774         -192.35112
     65       2.00000          -7.067975         -192.32940
     66       2.00000          -7.066834         -192.29834
     67       2.00000          -7.066486         -192.28888
     68       2.00000          -7.066404         -192.28664
     69       2.00000          -7.065705         -192.26762
     70       2.00000          -7.065659         -192.26636
     71       2.00000          -7.065352         -192.25802
     72       2.00000          -7.065258         -192.25545
     73       2.00000          -7.064610         -192.23782
     74       2.00000          -7.064402         -192.23217
     75       2.00000          -7.064296         -192.22928
     76       2.00000          -7.064232         -192.22753
     77       2.00000          -6.392726         -173.95492
     78       2.00000          -6.389573         -173.86911
     79       2.00000          -6.386940         -173.79749
     80       2.00000          -6.386361         -173.78172
     81       2.00000          -5.798271         -157.77899
     82       2.00000          -5.796125         -157.72058
     83       2.00000          -5.794611         -157.67939
     84       2.00000          -5.793928         -157.66081
     85       2.00000          -5.793669         -157.65376
     86       2.00000          -5.793329         -157.64451
     87       2.00000          -5.790897         -157.57833
     88       2.00000          -5.790700         -157.57296
     89       2.00000          -5.790337         -157.56309
     90       2.00000          -5.789827         -157.54921
     91       2.00000          -5.789195         -157.53202
     92       2.00000          -5.788613         -157.51618
     93       2.00000          -5.786950         -157.47093
     94       2.00000          -5.786188         -157.45020
     95       2.00000          -5.785295         -157.42587
     96       2.00000          -5.785135         -157.42152
     97       2.00000          -5.783540         -157.37813
     98       2.00000          -5.783406         -157.37450
     99       2.00000          -5.780298         -157.28991
    100       2.00000          -5.779614         -157.27129
    101       2.00000          -5.779399         -157.26545
    102       2.00000          -5.778763         -157.24814
    103       2.00000          -5.778281         -157.23502
    104       2.00000          -5.777703         -157.21929
    105       2.00000          -5.777261         -157.20727
    106       2.00000          -5.776983         -157.19972
    107       2.00000          -5.776834         -157.19566
    108       2.00000          -5.775762         -157.16649
    109       2.00000          -5.775469         -157.15851
    110       2.00000          -5.774230         -157.12478
    111       2.00000          -5.772181         -157.06904
    112       2.00000          -5.771114         -157.04000
    113       2.00000          -5.770364         -157.01961
    114       2.00000          -5.769738         -157.00256
    115       2.00000          -5.769563         -156.99781
    116       2.00000          -5.769392         -156.99314
    117       2.00000          -5.769301         -156.99068
    118       2.00000          -5.769073         -156.98446
    119       2.00000          -5.768570         -156.97078
    120       2.00000          -5.768325         -156.96411
    121       2.00000          -5.768175         -156.96003
    122       2.00000          -5.767875         -156.95186
    123       2.00000          -5.764857         -156.86973
    124       2.00000          -5.763106         -156.82208
    125       2.00000          -5.762992         -156.81899
    126       2.00000          -5.762053         -156.79344
    127       2.00000          -5.759995         -156.73744
    128       2.00000          -5.759917         -156.73531
    129       2.00000          -4.608572         -125.40562
    130       2.00000          -4.607747         -125.38317
    131       2.00000          -4.607426         -125.37445
    132       2.00000          -4.605203         -125.31396
    133       2.00000          -4.604672         -125.29951
    134       2.00000          -4.604474         -125.29411
    135       2.00000          -4.602338         -125.23599
    136       2.00000          -4.602276         -125.23430
    137       2.00000          -4.601935         -125.22502
    138       2.00000          -4.601783         -125.22089
    139       2.00000          -4.601688         -125.21831
    140       2.00000          -4.601343         -125.20890
    141       2.00000          -1.952155          -53.12083
    142       2.00000          -1.936613          -52.69793
    143       2.00000          -1.917027          -52.16495
    144       2.00000          -1.910878          -51.99763
    145       2.00000          -1.910003          -51.97382
    146       2.00000          -1.908536          -51.93390
    147       2.00000          -1.902551          -51.77105
    148       2.00000          -1.900660          -51.71959
    149       2.00000          -1.900176          -51.70641
    150       2.00000          -1.898295          -51.65523
    151       2.00000          -1.897072          -51.62197
    152       2.00000          -1.897069          -51.62188
    153       2.00000          -1.896748          -51.61315
    154       2.00000          -1.894937          -51.56387
    155       2.00000          -1.894772          -51.55936
    156       2.00000          -1.890715          -51.44897
    157       2.00000          -1.888204          -51.38066
    158       2.00000          -1.886719          -51.34024
    159       2.00000          -1.886443          -51.33272
    160       2.00000          -1.884553          -51.28130
    161       2.00000          -0.854538          -23.25316
    162       2.00000          -0.820669          -22.33154
    163       2.00000          -0.817967          -22.25801
    164       2.00000          -0.815593          -22.19343
    165       2.00000          -0.810760          -22.06191
    166       2.00000          -0.808520          -22.00094
    167       2.00000          -0.806773          -21.95341
    168       2.00000          -0.805359          -21.91494
    169       2.00000          -0.804013          -21.87830
    170       2.00000          -0.802844          -21.84650
    171       2.00000          -0.802319          -21.83220
    172       2.00000          -0.800883          -21.79313
    173       2.00000          -0.735759          -20.02102
    174       2.00000          -0.729282          -19.84478
    175       2.00000          -0.728452          -19.82220
    176       2.00000          -0.722670          -19.66484
    177       2.00000          -0.720841          -19.61509
    178       2.00000          -0.716470          -19.49614
    179       2.00000          -0.711053          -19.34874
    180       2.00000          -0.707365          -19.24837
    181       2.00000          -0.704990          -19.18376
    182       2.00000          -0.703677          -19.14803
    183       2.00000          -0.695654          -18.92970
    184       2.00000          -0.693056          -18.85900
    185       2.00000          -0.564382          -15.35761
    186       2.00000          -0.544320          -14.81170
    187       2.00000          -0.533124          -14.50704
    188       2.00000          -0.530886          -14.44615
    189       2.00000          -0.456776          -12.42951
    190       2.00000          -0.454857          -12.37728
    191       2.00000          -0.450393          -12.25582
    192       2.00000          -0.438941          -11.94419
    193       2.00000          -0.437032          -11.89223
    194       2.00000          -0.434859          -11.83311
    195       2.00000          -0.432188          -11.76044
    196       2.00000          -0.429583          -11.68954
    197       2.00000          -0.428592          -11.66258
    198       2.00000          -0.425520          -11.57899
    199       2.00000          -0.421250          -11.46279
    200       2.00000          -0.419262          -11.40871
    201       2.00000          -0.415533          -11.30721
    202       2.00000          -0.413986          -11.26515
    203       2.00000          -0.409876          -11.15330
    204       2.00000          -0.409137          -11.13319
    205       2.00000          -0.404091          -10.99588
    206       2.00000          -0.401860          -10.93517
    207       2.00000          -0.398467          -10.84283
    208       2.00000          -0.395757          -10.76908
    209       2.00000          -0.392300          -10.67504
    210       2.00000          -0.391472          -10.65249
    211       2.00000          -0.387855          -10.55407
    212       2.00000          -0.386301          -10.51179
    213       2.00000          -0.385501          -10.49001
    214       2.00000          -0.383601          -10.43831
    215       2.00000          -0.381919          -10.39254
    216       2.00000          -0.378833          -10.30856
    217       2.00000          -0.377060          -10.26034
    218       2.00000          -0.376502          -10.24515
    219       2.00000          -0.373787          -10.17126
    220       2.00000          -0.371693          -10.11429
    221       2.00000          -0.370674          -10.08656
    222       2.00000          -0.369597          -10.05723
    223       2.00000          -0.367701          -10.00565
    224       2.00000          -0.366025           -9.96004
    225       2.00000          -0.363568           -9.89320
    226       2.00000          -0.362465           -9.86318
    227       2.00000          -0.360170           -9.80073
    228       2.00000          -0.356295           -9.69527
    229       2.00000          -0.352629           -9.59554
    230       2.00000          -0.350713           -9.54339
    231       2.00000          -0.347319           -9.45104
    232       2.00000          -0.343964           -9.35974
    233       2.00000          -0.340618           -9.26870
    234       2.00000          -0.338933           -9.22285
    235       2.00000          -0.336207           -9.14865
    236       2.00000          -0.335204           -9.12138
    237       2.00000          -0.330984           -9.00654
    238       2.00000          -0.328287           -8.93315
    239       2.00000          -0.326277           -8.87845
    240       2.00000          -0.323949           -8.81511
    241       2.00000          -0.322615           -8.77879
    242       2.00000          -0.320270           -8.71500
    243       2.00000          -0.314889           -8.56857
    244       2.00000          -0.313570           -8.53268
    245       2.00000          -0.310361           -8.44534
    246       2.00000          -0.307631           -8.37107
    247       2.00000          -0.304919           -8.29727
    248       2.00000          -0.299623           -8.15316
    249       2.00000          -0.298773           -8.13002
    250       2.00000          -0.293170           -7.97757
    251       2.00000          -0.291602           -7.93490
    252       2.00000          -0.286798           -7.80417
    253       2.00000          -0.284622           -7.74496
    254       2.00000          -0.276728           -7.53014
    255       2.00000          -0.273282           -7.43638
    256       2.00000          -0.269790           -7.34137
    257       0.00000          -0.186532           -5.07580
    258       0.00000          -0.136763           -3.72150
    259       0.00000          -0.131777           -3.58582
    260       0.00000          -0.128313           -3.49158
    261       0.00000          -0.126718           -3.44818
    262       0.00000          -0.122023           -3.32041
    263       0.00000          -0.118323           -3.21975
    264       0.00000          -0.115601           -3.14565
    265       0.00000          -0.114020           -3.10263
    266       0.00000          -0.111658           -3.03838
    267       0.00000          -0.104915           -2.85488
    268       0.00000          -0.101587           -2.76432
    269       0.00000          -0.094891           -2.58212
    270       0.00000          -0.084709           -2.30504
    271       0.00000          -0.081430           -2.21581
    272       0.00000          -0.078862           -2.14594
    273       0.00000          -0.075950           -2.06669
    274       0.00000          -0.073120           -1.98970
    275       0.00000          -0.071761           -1.95271
    276       0.00000          -0.071249           -1.93878
    277       0.00000          -0.065528           -1.78310
    278       0.00000          -0.063480           -1.72738
    279       0.00000          -0.058326           -1.58714
    280       0.00000          -0.054098           -1.47207
    281       0.00000          -0.051300           -1.39595
    282       0.00000          -0.050968           -1.38690
    283       0.00000          -0.048743           -1.32636
    284       0.00000          -0.047611           -1.29557
    285       0.00000          -0.043583           -1.18596
    286       0.00000          -0.039302           -1.06945
    287       0.00000          -0.032401           -0.88167
    288       0.00000          -0.031215           -0.84939
[...]
    306       0.00000           0.032624            0.88775
    307       0.00000           0.036806            1.00155
    308       0.00000           0.037639            1.02422
    309       0.00000           0.040422            1.09993
    310       0.00000           0.042458            1.15534
    311       0.00000           0.043830            1.19268
    312       0.00000           0.044023            1.19793
    313       0.00000           0.048449            1.31836
    314       0.00000           0.050092            1.36307
    315       0.00000           0.050883            1.38459
    316       0.00000           0.053411            1.45340
    317       0.00000           0.054533            1.48393
    318       0.00000           0.057271            1.55843
    319       0.00000           0.059048            1.60677
    320       0.00000           0.061136            1.66360
    321       0.00000           0.066250            1.80275
    322       0.00000           0.066340            1.80520
    323       0.00000           0.072338            1.96841
    324       0.00000           0.074620            2.03052
    325       0.00000           0.076512            2.08199
    326       0.00000           0.079415            2.16100
    327       0.00000           0.079966            2.17600
    328       0.00000           0.081814            2.22626
    329       0.00000           0.087226            2.37354
    330       0.00000           0.090326            2.45789
    331       0.00000           0.091700            2.49527
    332       0.00000           0.095648            2.60271
    333       0.00000           0.097520            2.65365
    334       0.00000           0.100443            2.73318
    335       0.00000           0.101964            2.77459
    336       0.00000           0.103407            2.81385
    337       0.00000           0.108130            2.94236
    338       0.00000           0.109020            2.96660
    339       0.00000           0.112309            3.05608
    340       0.00000           0.113906            3.09953
    341       0.00000           0.116608            3.17306
    342       0.00000           0.118561            3.22621
    343       0.00000           0.122610            3.33639
    344       0.00000           0.124678            3.39267
    345       0.00000           0.130980            3.56414
    346       0.00000           0.132788            3.61334
    347       0.00000           0.135277            3.68106
    348       0.00000           0.138839            3.77801
    349       0.00000           0.142220            3.87001
    350       0.00000           0.144354            3.92806
    351       0.00000           0.146678            3.99131
    352       0.00000           0.152157            4.14040
    353       0.00000           0.153563            4.17866
    354       0.00000           0.155976            4.24433
    355       0.00000           0.161663            4.39908
    356       0.00000           0.163714            4.45489
    357       0.00000           0.168994            4.59856
    358       0.00000           0.169189            4.60388
    359       0.00000           0.172494            4.69381
    360       0.00000           0.174157            4.73906
    361       0.00000           0.175744            4.78224
    362       0.00000           0.182646            4.97006
    363       0.00000           0.183256            4.98664
    364       0.00000           0.185861            5.05754
    365       0.00000           0.190105            5.17302
    366       0.00000           0.191129            5.20087
    367       0.00000           0.195883            5.33024
    368       0.00000           0.198065            5.38962
    369       0.00000           0.202702            5.51581
    370       0.00000           0.203057            5.52547

  What follows are estimated values for band gap, HOMO, LUMO, etc.
  | They are estimated on a discrete k-point grid and not necessarily exact.
  | For converged numbers, create a DOS and/or band structure plot on a denser k-grid.

  Highest occupied state (VBM) at     -5.95681335 eV (relative to internal zero)
  | Occupation number:      2.00000000
  | K-point:       1 at    0.000000    0.000000    0.000000 (in units of recip. lattice)

  Lowest unoccupied state (CBM) at    -5.10825842 eV (relative to internal zero)
  | Occupation number:      0.00000000
  | K-point:       1 at    0.000000    0.000000    0.000000 (in units of recip. lattice)

  ESTIMATED overall HOMO-LUMO gap:      0.84855493 eV between HOMO at k-point 1 and LUMO at k-point 1
  | This appears to be a direct band gap.
  The gap value is above 0.2 eV. Unless you are using a very sparse k-point grid,
  this system is most likely an insulator or a semiconductor.

  Self-consistency cycle converged.

  End self-consistency iteration #    21       :  max(cpu_time)    wall_clock(cpu1)
  | Time for this iteration                    :       14.284 s          14.286 s
  | Charge density & force component update    :        9.442 s           9.442 s
  | Density mixing                             :        0.007 s           0.007 s
  | Hartree multipole update                   :        0.005 s           0.005 s
  | Hartree multipole summation                :        3.795 s           3.795 s
  | Integration                                :        0.661 s           0.661 s
  | Solution of K.-S. eqns.                    :        0.370 s           0.370 s
  | Total energy evaluation                    :        0.002 s           0.003 s

  Partial memory accounting:
  | Current value for overall tracked memory usage on task 0  :          13.158 MB
  | Peak value for overall tracked memory usage on task 0     :          25.624 MB after allocating wave_pulay
  | Largest tracked array allocation on task 0 so far         :           8.387 MB  when allocating kdm_complex
  Note:  These values currently only include a subset of arrays which are explicitly tracked.
  The "true" memory usage will be greater.
------------------------------------------------------------
  |------------------------------------------
  | Final ELSI Output
  |------------------------------------------
  | Number of basis functions :          724
  | Number of electrons       :        512.0
  | Number of states          :          370
  | Solver                    :         ELPA
  | Parallel mode             :  SINGLE_PROC
  | Matrix format             :  BLACS_DENSE
  |------------------------------------------
  | ELSI Project (c)  elsi-interchange.org
  |------------------------------------------
  Removing unitary transformations (pure translations, rotations) from forces on atoms.
  Atomic forces before filtering:
  | Net force on center of mass :   0.928666E-02 -0.804305E-03 -0.652760E-02 eV/A
  Atomic forces after filtering:
  | Net force on center of mass :   0.713624E-15  0.142725E-14  0.214087E-14 eV/A

  Energy and forces in a compact form:
  | Total energy uncorrected      :         -0.314730513137880E+06 eV
  | Total energy corrected        :         -0.314730513137880E+06 eV  <-- do not rely on this value for anything but (periodic) metals
  | Electronic free energy        :         -0.314730513137880E+06 eV
  Total atomic forces (unitary forces cleaned) [eV/Ang]:
  |   1          0.398942326628938E+01         -0.215099339608614E+01         -0.177021953962819E+01
  |   2          0.622451909032040E+00         -0.956502928059743E+00          0.875249387984815E+00
  |   3         -0.418297702360613E+00          0.164717029038437E+00         -0.411352299132096E+00
  |   4          0.523176578759332E+00         -0.185624675683097E+00          0.706440622094515E+00
  |   5          0.131005140319145E+01         -0.238330293331771E+00          0.763791726935070E+00
  |   6          0.949762351642929E-01         -0.462699273900414E+00         -0.195118128353125E+00
  |   7          0.846088075586638E+00          0.144123526486335E+01          0.256675826437383E+00
  |   8          0.196829413956383E+01         -0.351314123222384E+01          0.418372209392055E+01
  |   9          0.146431076616672E+01          0.736148761288142E+00          0.672509088630826E+00
  |  10         -0.734405765744194E-01         -0.509371319635333E+00         -0.433474331619573E+00
  |  11          0.484310824793594E+00          0.163912481690435E+00          0.148778527337271E+01
  |  12         -0.188856070359839E+01          0.681395449759254E+00         -0.893426424091495E+00
  |  13          0.634123278842691E+00          0.140070130130803E+01          0.288056003667302E+00
  |  14         -0.785795220851029E+00         -0.913502294544167E+00          0.206078781201361E+01
  |  15          0.111329859998999E+01          0.553993018668139E+00          0.555849771952369E+01
  |  16         -0.918419404252008E+00         -0.809104797403159E+00         -0.156955624776120E+01
  |  17         -0.243860793830360E+01         -0.102820236032784E+00         -0.100914206637655E+01
  |  18          0.305811931833102E+00         -0.120472490060533E+01          0.744631344191333E+00
  |  19          0.347393591132223E+00          0.789936259091093E-01         -0.567497721938727E+00
  |  20         -0.102210154239469E+01          0.132053247802371E+00          0.212937307375262E+01
  |  21         -0.128265854554448E+01          0.621911207880601E+00          0.230794276345640E+01
  |  22         -0.404167880308695E+00          0.229893039392513E+00         -0.249607415289986E+01
  |  23          0.148802766233845E+00         -0.359469019087225E+00         -0.696030312403508E+00
  |  24         -0.201516500260431E+00         -0.292131025557888E+01          0.216721202926042E+01
  |  25         -0.148915429211176E+01         -0.675314226917577E+00         -0.606909661056808E+01
  |  26         -0.423791146911911E+00          0.633248294722749E-01         -0.223653243479229E+01
  |  27          0.357834141787113E+00         -0.515429570457452E+00         -0.103587281625324E+01
  |  28          0.984928534061069E+00         -0.962505855283506E+00          0.150968303361318E+01
  |  29          0.173923835253299E+00         -0.154289280008810E+00          0.326773767203380E+00
  |  30         -0.946932080890090E+00         -0.791419725326291E+00          0.973905611617624E+00
  |  31          0.126133571656499E+01         -0.135635252832496E-01          0.473829825115524E+00
  |  32         -0.479107003201802E+00          0.115365016247557E+01          0.155301678124716E+00
  |  33         -0.137785035854825E+01          0.554707232737458E+00         -0.318853586671463E+00
  |  34          0.194773575134356E+00          0.134636204843184E+00          0.186636550703443E+00
  |  35          0.302196448959486E+00         -0.825979795745029E-01         -0.527553449480686E+00
  |  36          0.887832579550269E+00          0.156088659421284E+01         -0.488551378217254E+00
  |  37          0.954324610091283E+00          0.780617768749209E+00         -0.160011824539730E+01
  |  38         -0.203547033945232E+00          0.719390523090042E+00         -0.330960607043289E+00
  |  39         -0.123430844268368E+01          0.100840171436557E+01          0.345040538576348E+00
  |  40          0.491980423793357E+00          0.125081969162115E+01         -0.975085726250217E+00
  |  41         -0.395695573522732E+01          0.202019168186165E+01          0.214759692008656E+01
  |  42          0.267921407993652E+00          0.508095891416997E+00         -0.251457361511204E+00
  |  43          0.215990625547512E-01          0.272659920312775E+00         -0.465323532062615E+00
  |  44          0.279449295426264E+00         -0.197360764521213E+00          0.655896190837613E+00
  |  45         -0.387588913158385E+00          0.810675715984367E+00         -0.165062001147094E+01
  |  46          0.171884539595251E+01         -0.224943317458349E+00          0.102658814382979E+01
  |  47          0.967177454325336E+00         -0.442904185788208E+00         -0.245042506075589E+00
  |  48         -0.278383482690007E+01          0.134491069404757E+01         -0.576696753495094E+01

  ------------------------------------ 
  Start decomposition of the XC Energy 
  ------------------------------------ 
  X and C from original XC functional choice 
  Hartree-Fock Energy :          0.000000000 Ha              0.000000000 eV
  X Energy            :       -745.508819335 Ha         -20286.327131066 eV
  C Energy            :        -19.341394933 Ha           -526.306134277 eV
  Total XC Energy     :       -764.850214268 Ha         -20812.633265343 eV
  ------------------------------------ 
  LDA X and C from self-consistent density 
  X Energy LDA        :       -690.145852943 Ha         -18779.824165516 eV
  C Energy LDA        :        -38.827080675 Ha          -1056.538621265 eV
  ------------------------------------ 
  End decomposition of the XC Energy 
  ------------------------------------ 

------------------------------------------------------------

------------------------------------------------------------------------------
  Final output of selected total energy values:

  The following output summarizes some interesting total energy values
  at the end of a run (AFTER all relaxation, molecular dynamics, etc.).

  | Total energy of the DFT / Hartree-Fock s.c.f. calculation      :        -314730.513137880 eV
  | Final zero-broadening corrected energy (caution - metals only) :        -314730.513137880 eV
  | For reference only, the value of 1 Hartree used in FHI-aims is :             27.211384500 eV

  Before relying on these values, please be sure to understand exactly which
  total energy value is referred to by a given number. Different objects may
  all carry the same name 'total energy'. Definitions:

  Total energy of the DFT / Hartree-Fock s.c.f. calculation:
  | Note that this energy does not include ANY quantities calculated after the
  | s.c.f. cycle, in particular not ANY RPA, MP2, etc. many-body perturbation terms.

  Final zero-broadening corrected energy:
  | For metallic systems only, a broadening of the occupation numbers at the Fermi
  | level can be extrapolated back to zero broadening by an electron-gas inspired
  | formula. For all systems that are not real metals, this value can be
  | meaningless and should be avoided.

------------------------------------------------------------------------------
  Methods described in the following list of references were used in this FHI-aims run.
  If you publish the results, please make sure to cite these reference if they apply.
  FHI-aims is an academic code, and for our developers (often, Ph.D. students
  and postdocs), scientific credit in the community is essential.
  Thank you for helping us!

  For any use of FHI-aims, please cite:

    Volker Blum, Ralf Gehrke, Felix Hanke, Paula Havu, Ville Havu,
    Xinguo Ren, Karsten Reuter, and Matthias Scheffler
    'Ab initio molecular simulations with numeric atom-centered orbitals'
    Computer Physics Communications 180, 2175-2196 (2009)
    http://dx.doi.org/10.1016/j.cpc.2009.06.022


  The provided symmetry information was generated with SPGlib:

    Atsushi Togo, Yusuke Seto, Dimitar Pashov
    SPGlib 1.7.3 obtained from http://spglib.sourceforge.net
    Copyright (C) 2008 Atsushi Togo


  The scalable eigensolver library ELPA was used in your run.
  ELPA is essential especially for large systems on hundreds or thousands of CPUs.
  For ELPA, please cite:

    Andreas Marek, Volker Blum, Rainer Johanni, Ville Havu, Bruno Lang,
    Thomas Auckenthaler, Alexander Heinecke, Hans-Joachim Bungartz, and Hermann Lederer,
    'The ELPA Library - Scalable Parallel Eigenvalue Solutions
    for Electronic Structure Theory and Computational Science'
    The Journal of Physics: Condensed Matter 26, 213201 (2014).
    http://dx.doi.org/10.1088/0953-8984/26/21/213201


  The ELSI infrastructure was used in your run to solve the Kohn-Sham electronic structure.
  Please check out http://elsi-interchange.org to learn more.
  If scalability is important for your project, please acknowledge ELSI by citing:

    V. W-z. Yu, F. Corsetti, A. Garcia, W. P. Huhn, M. Jacquelin, W. Jia,
    B. Lange, L. Lin, J. Lu, W. Mi, A. Seifitokaldani, A. Vazquez-Mayagoitia,
    C. Yang, H. Yang, and V. Blum
    'ELSI: A unified software interface for Kohn-Sham electronic structure solvers'
    Computer Physics Communications 222, 267-285 (2018).
    http://dx.doi.org/10.1016/j.cpc.2017.09.007


  For the real-space grid partitioning and parallelization used in this calculation, please cite:

    Ville Havu, Volker Blum, Paula Havu, and Matthias Scheffler,
    'Efficient O(N) integration for all-electron electronic structure calculation'
    'using numerically tabulated basis functions'
    Journal of Computational Physics 228, 8367-8379 (2009).
    http://dx.doi.org/10.1016/j.jcp.2009.08.008

  Of course, there are many other important community references, e.g., those cited in the
  above references. Our list is limited to references that describe implementations in the
  FHI-aims code. The reason is purely practical (length of this list) - please credit others as well.

 * A warning was issued further up regarding the CPU load.
   Some CPUs do not participate in the eigenvalue solution.
   In corner cases, this may be the correct behavior. Otherwise,
   consider using a scalapack/elpa version of the code for a parallel treatment.

------------------------------------------------------------
          Leaving FHI-aims.
          Date     :  20220723, Time     :  171548.255

          Computational steps:
          | Number of self-consistency cycles          :           21
          | Number of SCF (re)initializations          :            1

          Detailed time accounting                     :  max(cpu_time)    wall_clock(cpu1)
          | Total time                                 :      108.810 s         108.827 s
          | Preparation time                           :        0.411 s           0.422 s
          | Boundary condition initalization           :        0.245 s           0.245 s
          | Grid partitioning                          :        0.258 s           0.258 s
          | Preloading free-atom quantities on grid    :        0.009 s           0.009 s
          | Free-atom superposition energy             :        0.139 s           0.139 s
          | Total time for integrations                :       15.102 s          15.087 s
          | Total time for solution of K.-S. equations :        8.261 s           8.265 s
          | Total time for density & force components  :       31.204 s          31.172 s
          | Total time for mixing & preconditioning    :       18.978 s          18.988 s
          | Total time for Hartree multipole update    :        0.100 s           0.100 s
          | Total time for Hartree multipole sum       :       33.327 s          33.356 s
          | Total time for total energy evaluation     :        0.008 s           0.015 s

          Partial memory accounting:
          | Residual value for overall tracked memory usage across tasks :           0.000 MB (should be 0.000 MB)
          | Peak values for overall tracked memory usage (after allocating wave_pulay):
          |   Minimum:       25.393 MB (on task 19)
          |   Maximum:       51.009 MB (on task  2)
          |   Average:       43.461 MB
          | Largest tracked array allocation (kdm_complex):
          |   Minimum:        8.387 MB (on task  1)
          |   Maximum:        8.387 MB (on task  1)
          |   Average:        8.387 MB
          Note:  These values currently only include a subset of arrays which are explicitly tracked.
          The "true" memory usage will be greater.

          Have a nice day.
------------------------------------------------------------
