  MPI-parallelism will be employed.
------------------------------------------------------------
          Invoking FHI-aims ...
          Version 171221_1
          Compiled on 2020/09/23 at 19:46:43 on host login.service.

          When using FHI-aims, please cite the following reference:

          Volker Blum, Ralf Gehrke, Felix Hanke, Paula Havu,
          Ville Havu, Xinguo Ren, Karsten Reuter, and Matthias Scheffler,
          'Ab Initio Molecular Simulations with Numeric Atom-Centered Orbitals',
          Computer Physics Communications 180, 2175-2196 (2009)

          For any questions about FHI-aims, please visit the aimsclub website
          with its forums and wiki. Contributions to both the forums and the
          wiki are warmly encouraged - they are for you, and everyone is welcome there.

------------------------------------------------------------



  Date     :  20220324, Time     :  021815.376
  Time zero on CPU 1             :   0.843060000000000E-01  s.
  Internal wall clock time zero  :           417320295.376  s.

  FHI-aims created a unique identifier for this run for later identification
  aims_uuid : F8D44CA6-5FA8-475D-AE46-0DBAEE4996D4

  Using       20 parallel tasks.
  Task        0 on host node010 reporting.
  Task        1 on host node010 reporting.
  Task        2 on host node010 reporting.
  Task        3 on host node010 reporting.
  Task        4 on host node010 reporting.
  Task        5 on host node010 reporting.
  Task        6 on host node010 reporting.
  Task        7 on host node010 reporting.
  Task        8 on host node010 reporting.
  Task        9 on host node010 reporting.
  Task       10 on host node010 reporting.
  Task       11 on host node010 reporting.
  Task       12 on host node010 reporting.
  Task       13 on host node010 reporting.
  Task       14 on host node010 reporting.
  Task       15 on host node010 reporting.
  Task       16 on host node010 reporting.
  Task       17 on host node010 reporting.
  Task       18 on host node010 reporting.
  Task       19 on host node010 reporting.

  Performing system and environment tests:
  *** Environment variable OMP_NUM_THREADS is not set
  *** For performance reasons you might want to set it to 1
  | Maximum stacksize for task 0: unlimited
  | Maximum stacksize for task 1: unlimited
  | Maximum stacksize for task 2: unlimited
  | Maximum stacksize for task 3: unlimited
  | Maximum stacksize for task 4: unlimited
  | Maximum stacksize for task 5: unlimited
  | Maximum stacksize for task 6: unlimited
  | Maximum stacksize for task 7: unlimited
  | Maximum stacksize for task 8: unlimited
  | Maximum stacksize for task 9: unlimited
  | Maximum stacksize for task 10: unlimited
  | Maximum stacksize for task 11: unlimited
  | Maximum stacksize for task 12: unlimited
  | Maximum stacksize for task 13: unlimited
  | Maximum stacksize for task 14: unlimited
  | Maximum stacksize for task 15: unlimited
  | Maximum stacksize for task 16: unlimited
  | Maximum stacksize for task 17: unlimited
  | Maximum stacksize for task 18: unlimited
  | Maximum stacksize for task 19: unlimited
  | Current stacksize for task 0: unlimited
  | Current stacksize for task 1: unlimited
  | Current stacksize for task 2: unlimited
  | Current stacksize for task 3: unlimited
  | Current stacksize for task 4: unlimited
  | Current stacksize for task 5: unlimited
  | Current stacksize for task 6: unlimited
  | Current stacksize for task 7: unlimited
  | Current stacksize for task 8: unlimited
  | Current stacksize for task 9: unlimited
  | Current stacksize for task 10: unlimited
  | Current stacksize for task 11: unlimited
  | Current stacksize for task 12: unlimited
  | Current stacksize for task 13: unlimited
  | Current stacksize for task 14: unlimited
  | Current stacksize for task 15: unlimited
  | Current stacksize for task 16: unlimited
  | Current stacksize for task 17: unlimited
  | Current stacksize for task 18: unlimited
  | Current stacksize for task 19: unlimited
  | Checking for scalapack...
  | Testing pdtran()...
  | All pdtran() tests passed.

  Obtaining array dimensions for all initial allocations:
  
  -----------------------------------------------------------------------
  Parsing control.in (first pass over file, find array dimensions only).
  The contents of control.in will be repeated verbatim below
  unless switched off by setting 'verbatim_writeout .false.' .
  in the first line of control.in .
  -----------------------------------------------------------------------
  
  #===============================================================================
  # FHI-aims file: ./control.in
  # Created using the Atomic Simulation Environment (ASE)
  # Wed Mar 24 12:41:28 2021
  #===============================================================================
  xc                                 pbe
  sc_accuracy_etot                   1e-06
  sc_accuracy_eev                    0.001
  sc_accuracy_rho                    1e-06
  sc_accuracy_forces                 0.0001
  friction_temperature               300  # default 300
  
    k_grid                             5 5 5
  
  ################################################################################
  #
  #  FHI-aims code project
  # Volker Blum, Fritz Haber Institute Berlin, 2009
  #
  #  Suggested "tight" defaults for Li atom (to be pasted into control.in file)
  #
  #  2016/03/22: Increased cutoff radius to 5.0 AA (Xinguo Ren, Aug 15, 2015)
  #
  ################################################################################
    species        Li
  #     global species definitions
      nucleus             3
      mass                6.941
  #
      l_hartree           6
  #
      cut_pot             5.0  2.0  1.0
      basis_dep_cutoff    1e-4
  #
      radial_base         29 7.0
      radial_multiplier   2
      angular_grids       specified
        division   0.4484  110
        division   0.5659  194
        division   0.6315  302
        division   0.6662  434
  #      division   0.8186  590
  #      division   0.9037  770
  #      division   6.2760  974
  #      outer_grid   974
        outer_grid  434
  ################################################################################
  #
  #  Definition of "minimal" basis
  #
  ################################################################################
  #     valence basis states
      valence      2  s   1.
  #     ion occupancy
      ion_occ      1  s   2.
  ################################################################################
  #
  #  Suggested additional basis functions. For production calculations,
  #  uncomment them one after another (the most important basis functions are
  #  listed first).
  #
  #  Constructed for dimers: 1.80 A, 2.25 A, 2.75 A, 3.50 A, 4.50 A
  #
  ################################################################################
  #  "First tier" - improvements: -189.23 meV to -6.35 meV
       hydro 2 p 1.6
       hydro 2 s 2
       hydro 3 d 2.6
  #  "Second tier" - improvements: -4.69 meV to -0.41 meV
       hydro 3 p 4.6
       hydro 2 p 1.8
       hydro 3 s 6.2
       hydro 4 d 4.7
       hydro 4 f 4.1
  #  "Third tier" - improvements: -0.20 meV to -0.15 meV
  #     hydro 4 d 0.95
  #     hydro 3 p 6.2
  #     hydro 3 s 1.7
  #  Further functions, listed for completeness
  #     VB: The following functions are only listed for completeness; test very
  #         carefully before any kind of production use. From the point of view
  #         of the basis construction, their main role is to fill up space,
  #         and they are solely determined by the location of the cutoff potential.
  #     hydro 3 p 0.1  # -0.15 meV
  #     hydro 4 d 5    # -0.12 meV
  #     hydro 4 f 0.1  # -0.14 meV
  #     hydro 5 g 0.1  # -0.06 meV
  
  
  ################################################################################
  #
  # For methods that use the localized form of the "resolution of identity" for
  # the two-electron Coulomb operator (RI_method LVL), particularly Hartree-Fock and
  # hybrid density functional calculations, the highest accuracy can be obtained by
  # uncommenting the line beginning with "for_aux"  below, thus adding an extra g radial
  # function to the construction of the product basis set for the expansion.
  # See Ref. New J. Phys. 17, 093020 (2015) for more information, particularly Figs. 1 and 6.
  #
  ################################################################################
  #
  # for_aux hydro 5 g 6.0
  ################################################################################
  #
  #  FHI-aims code project
  # Volker Blum, Fritz Haber Institute Berlin, 2010
  #
  #  Suggested "tight" defaults for P atom (to be pasted into control.in file)
  #
  #  Revised Jan 04, 2011, following tests (SiC) done by Lydia Nemec:
  #     d function of tier 2 now enabled by default.
  #
  ################################################################################
    species        P
  #     global species definitions
      nucleus             15
      mass                30.973762
  #
      l_hartree           6
  #
      cut_pot             4.0          2.0  1.0
      basis_dep_cutoff    1e-4
  #
      radial_base         43 7.0
      radial_multiplier   2
      angular_grids       specified
        division   0.2995   50
        division   0.5998  110
        division   0.9240  194
        division   1.0921  302
        division   1.2863  434
  #      division   1.3165  590
  #      division   1.4113  770
  #      division   1.5128  974
  #      division   2.4980 1202
        outer_grid  434
  ################################################################################
  #
  #  Definition of "minimal" basis
  #
  ################################################################################
  #     valence basis states
      valence      3  s   2.
      valence      3  p   3.
  #     ion occupancy
      ion_occ      3  s   1.
      ion_occ      3  p   2.
  ################################################################################
  #
  #  Suggested additional basis functions. For production calculations,
  #  uncomment them one after another (the most important basis functions are
  #  listed first).
  #
  #  Constructed for dimers: 1.625 A, 1.875 A, 2.5 A, 3.25 A, 4.0 A
  #
  ################################################################################
  #  "First tier" - improvements: -726.20 meV to -35.91 meV
       ionic 3 d auto
       ionic 3 p auto
       hydro 4 f 6.2
       hydro 5 g 8.6
       ionic 3 s auto
  #  "Second tier" - improvements: -16.02 meV to -1.71 meV
       hydro 4 d 6.2
  #     hydro 4 p 9.2
  #     hydro 5 f 9.8
  #     hydro 1 s 0.7
  #     hydro 5 g 13.2
  #  "Third tier" - improvements: -1.82 meV to -0.20 meV
  #     hydro 3 p 2.5
  #     hydro 4 d 6.4
  #     hydro 5 f 11.2
  #     hydro 2 s 1.5
  #  "Fourth tier" - improvements: -0.91 meV to -0.17 meV
  #     hydro 3 d 16.8
  #     hydro 5 g 18
  #     hydro 4 p 4.5
  #     hydro 3 s 2.1
  #  Further basis functions that fell out of the optimization - < -0.09 meV
  #     hydro 4 p 10.4
  #     hydro 4 d 17.6
  #     hydro 4 s 11.2
  ################################################################################
  #
  # For methods that use the localized form of the "resolution of identity" for
  # the two-electron Coulomb operator (RI_method LVL), particularly Hartree-Fock and
  # hybrid density functional calculations, the highest accuracy can be obtained by
  # uncommenting the line beginning with "for_aux"  below, thus adding an extra g radial
  # function to the construction of the product basis set for the expansion.
  # See Ref. New J. Phys. 17, 093020 (2015) for more information, particularly Figs. 1 and 6.
  #
  ################################################################################
  #
  # for_aux hydro 5 g 6.0
  ################################################################################
  #
  #  FHI-aims code project
  # Volker Blum, Fritz Haber Institute Berlin, 2009
  #
  #  Suggested "tight" defaults for S atom (to be pasted into control.in file)
  #
  #  Revised Jan 04, 2011, following tests (SiC) done by Lydia Nemec:
  #     d and g functions of tier 2 now enabled by default.
  #
  ################################################################################
    species        S
  #     global species definitions
      nucleus             16
      mass                32.065
  #
      l_hartree           6
  #
      cut_pot             4.0          2.0  1.0
      basis_dep_cutoff    1e-4
  #
      radial_base         44 7.0
      radial_multiplier   2
      angular_grids       specified
        division   0.4665  110
        division   0.5810  194
        division   0.7139  302
        division   0.8274  434
  #      division   0.9105  590
  #      division   1.0975  770
  #      division   1.2028  974
  #      outer_grid  974
        outer_grid  434
  ################################################################################
  #
  #  Definition of "minimal" basis
  #
  ################################################################################
  #     valence basis states
      valence      3  s   2.
      valence      3  p   4.
  #     ion occupancy
      ion_occ      3  s   1.
      ion_occ      3  p   3.
  ################################################################################
  #
  #  Suggested additional basis functions. For production calculations,
  #  uncomment them one after another (the most important basis functions are
  #  listed first).
  #
  #  Constructed for dimers: 1.6 A, 1.9 A, 2.5 A, 3.25 A, 4.0 A
  #
  ################################################################################
  #  "First tier" - improvements: -652.81 meV to -45.53 meV
       ionic 3 d auto
       hydro 2 p 1.8
       hydro 4 f 7
       ionic 3 s auto
  #  "Second tier" - improvements: -30.20 meV to -1.74 meV
       hydro 4 d 6.2
       hydro 5 g 10.8
  #     hydro 4 p 4.9
  #     hydro 5 f 10
  #     hydro 1 s 0.8
  #  "Third tier" - improvements: -1.04 meV to -0.20 meV
  #     hydro 3 d 3.9
  #     hydro 3 d 2.7
  #     hydro 5 g 12
  #     hydro 4 p 10.4
  #     hydro 5 f 12.4
  #     hydro 2 s 1.9
  #  "Fourth tier" - improvements: -0.35 meV to -0.06 meV
  #     hydro 4 d 10.4
  #     hydro 4 p 7.2
  #     hydro 4 d 10
  #     hydro 5 g 19.2
  #     hydro 4 s 12
  
  ################################################################################
  #
  # For methods that use the localized form of the "resolution of identity" for
  # the two-electron Coulomb operator (RI_method LVL), particularly Hartree-Fock and
  # hybrid density functional calculations, the highest accuracy can be obtained by
  # uncommenting the line beginning with "for_aux"  below, thus adding an extra g radial
  # function to the construction of the product basis set for the expansion.
  # See Ref. New J. Phys. 17, 093020 (2015) for more information, particularly Figs. 1 and 6.
  #
  ################################################################################
  #
  # for_aux hydro 5 g 6.0
  ################################################################################
  #
  #  FHI-aims code project
  # Volker Blum, Fritz Haber Institute Berlin, 2009
  #
  #  Suggested "tight" defaults for Cl atom (to be pasted into control.in file)
  #
  #  Revised Jan 04, 2011, following tests (SiC) done by Lydia Nemec:
  #     d function of tier 2 now enabled by default.
  #
  ################################################################################
    species        Cl
  #     global species definitions
      nucleus             17
      mass                35.453
  #
      l_hartree           6
  #
      cut_pot             4.0          2.0  1.0
      basis_dep_cutoff    1e-4
  #
      radial_base         45 7.0
      radial_multiplier   2
      angular_grids       specified
        division   0.4412  110
        division   0.5489  194
        division   0.6734  302
        division   0.7794  434
  #      division   0.9402  590
  #      division   1.0779  770
  #      division   1.1792  974
  #      outer_grid  974
        outer_grid  434
  ################################################################################
  #
  #  Definition of "minimal" basis
  #
  ################################################################################
  #     valence basis states
      valence      3  s   2.
      valence      3  p   5.
  #     ion occupancy
      ion_occ      3  s   1.
      ion_occ      3  p   4.
  ################################################################################
  #
  #  Suggested additional basis functions. For production calculations,
  #  uncomment them one after another (the most important basis functions are
  #  listed first).
  #
  #  Constructed for dimers: 1.65 A, 2.0 A, 2.5 A, 3.25 A, 4.0 A
  #
  ################################################################################
  #  "First tier" - improvements: -429.57 meV to -15.03 meV
       ionic 3 d auto
       hydro 2 p 1.9
       hydro 4 f 7.4
       ionic 3 s auto
       hydro 5 g 10.4
  #  "Second tier" - improvements: -7.84 meV to -0.48 meV
       hydro 3 d 3.3
  #     hydro 5 f 9.8
  #     hydro 1 s 0.75
  #     hydro 5 g 11.2
  #     hydro 4 p 10.4
  #  "Third tier" - improvements: -1.00 meV to -0.12 meV
  #     hydro 4 d 12.8
  #     hydro 4 f 4.6
  #     hydro 4 d 10.8
  #     hydro 2 s 1.8
  #     hydro 3 p 3
  #  Further functions that fell out - improvements: -0.10 meV and below
  #     hydro 5 f 14.4
  #     hydro 4 s 12.8
  #     hydro 3 d 11.6
  #     hydro 4 s 4.1
  ################################################################################
  #
  # For methods that use the localized form of the "resolution of identity" for
  # the two-electron Coulomb operator (RI_method LVL), particularly Hartree-Fock and
  # hybrid density functional calculations, the highest accuracy can be obtained by
  # uncommenting the line beginning with "for_aux"  below, thus adding an extra g radial
  # function to the construction of the product basis set for the expansion.
  # See Ref. New J. Phys. 17, 093020 (2015) for more information, particularly Figs. 1 and 6.
  #
  ################################################################################
  #
  # for_aux hydro 5 g 6.0
  ################################################################################
  #
  #  FHI-aims code project
  # Volker Blum, Fritz Haber Institute Berlin, 2009
  #
  #  Suggested "tight" defaults for Ge atom (to be pasted into control.in file)
  #
  ################################################################################
    species        Ge
  #     global species definitions
      nucleus             32
      mass                72.64
  #
      l_hartree           6
  #
      cut_pot             4.0          2.0  1.0
      basis_dep_cutoff    1e-4
  #
      radial_base         54 7.0
      radial_multiplier   2
      angular_grids       specified
        division   0.0947  110
        division   0.1314  194
        division   0.7746  302
        division   0.8710  434
  #      division   0.9770  590
  #      division   1.1356  770
  #      division   2.6430  974
  #      outer_grid  974
        outer_grid  434
  ################################################################################
  #
  #  Definition of "minimal" basis
  #
  ################################################################################
  #     valence basis states
      valence      4  s   2.
      valence      4  p   2.
      valence      3  d  10.
  #     ion occupancy
      ion_occ      4  s   1.
      ion_occ      4  p   1.
      ion_occ      3  d  10.
  ################################################################################
  #
  #  Suggested additional basis functions. For production calculations,
  #  uncomment them one after another (the most important basis functions are
  #  listed first).
  #
  #  Constructed for dimers: 1.80 A, 2.00 A, 2.35 A, 3.00 A, 4.00 A
  #
  ################################################################################
  #  "First tier" - improvements: -329.04 meV to -37.61 meV
       hydro 2 p 1.4
       hydro 3 d 4.3
       hydro 4 f 7.4
       hydro 3 s 3.4
  #  "Second tier" - improvements: -13.91 meV to -1.23 meV
  #     hydro 5 g 10.8
  #     hydro 3 d 2.5
  #     hydro 3 p 3.3
  #     hydro 4 f 12
  #     hydro 6 h 15.6
  #     hydro 3 s 7.2
  #  "Third tier" - improvements: -1.47 meV to -0.40 meV
  #     hydro 3 d 5.8
  #     hydro 4 f 4.3
  #     hydro 5 g 11.6
  #     hydro 5 s 14.8
  #     hydro 4 p 3.9
  #  "Fourth tier"  -improvements: -0.39 meV to -0.11 meV
  #     hydro 4 f 23.2
  #     hydro 2 s 6.2
  #     hydro 5 d 9.8
  #     hydro 5 p 6
  #     hydro 6 h 14.8
  #  Further functions - -0.13 meV and below
  #     hydro 5 f 9.6
  
  -----------------------------------------------------------------------
  Completed first pass over input file control.in .
  -----------------------------------------------------------------------
  
  
  -----------------------------------------------------------------------
  Parsing geometry.in (first pass over file, find array dimensions only).
  The contents of geometry.in will be repeated verbatim below
  unless switched off by setting 'verbatim_writeout .false.' .
  in the first line of geometry.in .
  -----------------------------------------------------------------------
  
  #=======================================================
  # FHI-aims file: /home/gz_fan/Downloads/software/fhiaims/fhiaims/work/test_band/Li5PS4Cl2/volscan/geometry.in.4
  # Created using the Atomic Simulation Environment (ASE)
  # Wed Mar 23 23:26:31 2022
  #=======================================================
  lattice_vector 9.7990197658649993 0.0000000000000000 0.0000000000000000
  lattice_vector 0.0000000000000000 9.7990197658649993 0.0000000000000000
  lattice_vector 0.0000000000000000 0.0000000000000000 9.7990197658649993
  atom 3.0383263985941333 0.2775427332842662 6.5897062082646460 Li
  atom 3.2442791655376335 0.0197829405721623 2.9080008297157294 Li
  atom 6.6950140825834916 3.1060003805966523 0.2868846259177922 Li
  atom 6.8882661056488059 6.6611264364411902 -0.0144209388980922 Li
  atom 0.3132994618225060 6.7413891864404594 3.1503205513981256 Li
  atom 9.4629638954310877 6.5949085229574589 6.7842419978137967 Li
  atom -0.1063349991859020 3.1013728340794318 6.6869886322754750 Li
  atom 3.5209116048111988 5.1384510092572020 1.6421298551227073 Li
  atom 6.6452655411706338 8.0464819041140494 5.0880781884583870 Li
  atom 6.3667385501742597 1.7359709976551794 4.6195790170050142 Li
  atom 3.0814420430868363 7.6328974310644941 4.7215526455234196 Li
  atom 0.0236298536889561 2.0991782514045503 2.0006180605531423 Li
  atom 7.8960141910226840 0.0152485253945033 1.7245955476482757 Li
  atom 8.0275098802918166 9.7205707268132393 8.0860021298590503 Li
  atom 2.2047734169455206 3.7833774008867866 4.9968726867781053 Li
  atom 4.6424268702522866 3.2711687287938060 7.7360265274071418 Li
  atom 7.8747608335975139 4.5918168873904834 3.4698400641939728 Li
  atom 1.6672178864421210 8.2419726276304743 0.1674783165505822 Li
  atom 1.7491852649125126 1.9584145543389675 9.4191957151881862 Li
  atom 4.8143008433487520 6.6715627825452941 7.8217798574267086 Li
  atom 0.0080793295654832 -0.0116731737952863 4.8691236387626891 P
  atom 4.8440549191957594 0.0598490119434257 -0.1326790142568149 P
  atom 0.0504993845404560 4.9394884805685848 0.0770935252456904 P
  atom 5.0066331062426217 4.8227328842657169 4.7700036650062003 P
  atom 1.1391110136872797 8.5559659028266051 6.0397633215283006 S
  atom 8.5105844158273669 1.0953437641229660 5.9956733033509355 S
  atom 8.6397592309179654 8.5959650491606183 3.6845418832611836 S
  atom 1.2536538854669554 1.2174087775435805 3.8375052758149755 S
  atom 6.0164283474709377 1.2798985422149531 8.5087689988110409 S
  atom 5.9522607667750176 8.6497055708304451 1.0577215445118455 S
  atom 3.6395171492724492 8.6885459129433187 8.4853033409864906 S
  atom 3.6599920338360454 1.2777894150914082 0.9637268796038068 S
  atom 8.6362403037315900 5.8986253180484969 1.4300618515812371 S
  atom 1.0547966691221899 6.2473519457745352 8.7143931109356316 S
  atom 8.6661892827832432 3.7433538467791743 8.7501480062485655 S
  atom 1.4065581994541427 3.8409834869096504 1.1512460925973891 S
  atom 6.0210154200441126 6.1881472018297741 3.6815088431346021 S
  atom 6.2617995067107080 3.7542671822136198 5.9514101473038448 S
  atom 4.0449554745785710 3.5757288503522320 3.4915328976198259 S
  atom 3.5926363876266185 5.7026631723655292 5.9875084597509938 S
  atom 2.3431523853927998 2.4687381958792591 7.1815290014737529 Cl
  atom 7.2402990280340038 7.4639899655226092 7.4094881428272732 Cl
  atom 4.6893401077360055 -0.2304062883468816 4.8440233118219878 Cl
  atom 5.1099085503373676 4.9802755845725342 -0.2557593309569739 Cl
  atom -0.0492313467322908 0.2576379496437717 0.1647161446527821 Cl
  atom 0.0297418469046800 4.9075027909904341 4.9730687825730149 Cl
  atom 7.5204234253785831 2.3283888781808746 2.4472983053145616 Cl
  atom 2.4468892592992795 7.4496399735740457 2.4374684201611907 Cl
  
  -----------------------------------------------------------------------
  Completed first pass over input file geometry.in .
  -----------------------------------------------------------------------
  

  Basic array size parameters:
  | Number of species                 :        5
  | Number of atoms                   :       48
  | Number of lattice vectors         :        3
  | Max. basis fn. angular momentum   :        4
  | Max. atomic/ionic basis occupied n:        4
  | Max. number of basis fn. types    :        3
  | Max. radial fns per species/type  :        8
  | Max. logarithmic grid size        :     1414
  | Max. radial integration grid size :      109
  | Max. angular integration grid size:      434
  | Max. angular grid division number :        8
  | Radial grid for Hartree potential :     1414
  | Number of spin channels           :        1

------------------------------------------------------------
          Reading file control.in.
------------------------------------------------------------
  XC: Using PBE gradient-corrected functionals.
  Convergence accuracy of total energy:  0.1000E-05
  Convergence accuracy of sum of eigenvalues:  0.1000E-02
  Convergence accuracy of self-consistent charge density:  0.1000E-05
  Convergence accuracy of forces:  0.1000E-03
  Friction is calculated at temperature of   0.3000E+03 K
  Found k-point grid:         5         5         5
 
  Reading configuration options for species Li                  .
  | Found nuclear charge :   3.0000
  | Found atomic mass :    6.94100000000000      amu
  | Found l_max for Hartree potential  :   6
  | Found cutoff potl. onset [A], width [A], scale factor :    5.00000    2.00000    1.00000
  | Threshold for basis-dependent cutoff potential is   0.100000E-03
  | Found data for basic radial integration grid :    29 points, outermost radius =    7.000 A
  | Found multiplier for basic radial grid :   2
  | Found angular grid specification: user-specified.
  | Specified grid contains     5 separate shells.
  | Check grid settings after all constraints further below.
  | Found free-atom valence shell :  2 s   1.000
  | Found free-ion valence shell :  1 s   2.000
  | Found hydrogenic basis function :  2 p   1.600
  | Found hydrogenic basis function :  2 s   2.000
  | Found hydrogenic basis function :  3 d   2.600
  | Found hydrogenic basis function :  3 p   4.600
  | Found hydrogenic basis function :  2 p   1.800
  | Found hydrogenic basis function :  3 s   6.200
  | Found hydrogenic basis function :  4 d   4.700
  | Found hydrogenic basis function :  4 f   4.100
  Species Li                  : Missing cutoff potential type.
  Defaulting to exp(1/x)/(1-x)^2 type cutoff potential.
  Species Li: No 'logarithmic' tag. Using default grid for free atom:
  | Default logarithmic grid data [bohr] : 0.1000E-03 0.1000E+03 0.1012E+01
  Species Li: On-site basis accuracy parameter (for Gram-Schmidt orthonormalisation) not specified.
  Using default value basis_acc =  0.1000000E-03.
  Species Li                  : Using default innermost maximum threshold i_radial=  2 for radial functions.
  Species Li                  : Default cutoff onset for free atom density etc. : 0.50000000E+01 AA.
  Species Li                  : Basic radial grid will be enhanced according to radial_multiplier =   2, to contain    59 grid points.
 
  Reading configuration options for species P                   .
  | Found nuclear charge :  15.0000
  | Found atomic mass :    30.9737620000000      amu
  | Found l_max for Hartree potential  :   6
  | Found cutoff potl. onset [A], width [A], scale factor :    4.00000    2.00000    1.00000
  | Threshold for basis-dependent cutoff potential is   0.100000E-03
  | Found data for basic radial integration grid :    43 points, outermost radius =    7.000 A
  | Found multiplier for basic radial grid :   2
  | Found angular grid specification: user-specified.
  | Specified grid contains     6 separate shells.
  | Check grid settings after all constraints further below.
  | Found free-atom valence shell :  3 s   2.000
  | Found free-atom valence shell :  3 p   3.000
  | Found free-ion valence shell :  3 s   1.000
  | Found free-ion valence shell :  3 p   2.000
  | Found ionic basis function :  3 d , default cutoff radius.
  | Found ionic basis function :  3 p , default cutoff radius.
  | Found hydrogenic basis function :  4 f   6.200
  | Found hydrogenic basis function :  5 g   8.600
  | Found ionic basis function :  3 s , default cutoff radius.
  | Found hydrogenic basis function :  4 d   6.200
  Species P                   : Missing cutoff potential type.
  Defaulting to exp(1/x)/(1-x)^2 type cutoff potential.
  Species P : No 'logarithmic' tag. Using default grid for free atom:
  | Default logarithmic grid data [bohr] : 0.1000E-03 0.1000E+03 0.1012E+01
  | Will include ionic basis functions of  2.0-fold positive P                    ion.
  Species P : On-site basis accuracy parameter (for Gram-Schmidt orthonormalisation) not specified.
  Using default value basis_acc =  0.1000000E-03.
  Species P                   : Using default innermost maximum threshold i_radial=  2 for radial functions.
  Species P                   : Default cutoff onset for free atom density etc. : 0.40000000E+01 AA.
  Species P                   : Basic radial grid will be enhanced according to radial_multiplier =   2, to contain    87 grid points.
 
  Reading configuration options for species S                   .
  | Found nuclear charge :  16.0000
  | Found atomic mass :    32.0650000000000      amu
  | Found l_max for Hartree potential  :   6
  | Found cutoff potl. onset [A], width [A], scale factor :    4.00000    2.00000    1.00000
  | Threshold for basis-dependent cutoff potential is   0.100000E-03
  | Found data for basic radial integration grid :    44 points, outermost radius =    7.000 A
  | Found multiplier for basic radial grid :   2
  | Found angular grid specification: user-specified.
  | Specified grid contains     5 separate shells.
  | Check grid settings after all constraints further below.
  | Found free-atom valence shell :  3 s   2.000
  | Found free-atom valence shell :  3 p   4.000
  | Found free-ion valence shell :  3 s   1.000
  | Found free-ion valence shell :  3 p   3.000
  | Found ionic basis function :  3 d , default cutoff radius.
  | Found hydrogenic basis function :  2 p   1.800
  | Found hydrogenic basis function :  4 f   7.000
  | Found ionic basis function :  3 s , default cutoff radius.
  | Found hydrogenic basis function :  4 d   6.200
  | Found hydrogenic basis function :  5 g  10.800
  Species S                   : Missing cutoff potential type.
  Defaulting to exp(1/x)/(1-x)^2 type cutoff potential.
  Species S : No 'logarithmic' tag. Using default grid for free atom:
  | Default logarithmic grid data [bohr] : 0.1000E-03 0.1000E+03 0.1012E+01
  | Will include ionic basis functions of  2.0-fold positive S                    ion.
  Species S : On-site basis accuracy parameter (for Gram-Schmidt orthonormalisation) not specified.
  Using default value basis_acc =  0.1000000E-03.
  Species S                   : Using default innermost maximum threshold i_radial=  2 for radial functions.
  Species S                   : Default cutoff onset for free atom density etc. : 0.40000000E+01 AA.
  Species S                   : Basic radial grid will be enhanced according to radial_multiplier =   2, to contain    89 grid points.
 
  Reading configuration options for species Cl                  .
  | Found nuclear charge :  17.0000
  | Found atomic mass :    35.4530000000000      amu
  | Found l_max for Hartree potential  :   6
  | Found cutoff potl. onset [A], width [A], scale factor :    4.00000    2.00000    1.00000
  | Threshold for basis-dependent cutoff potential is   0.100000E-03
  | Found data for basic radial integration grid :    45 points, outermost radius =    7.000 A
  | Found multiplier for basic radial grid :   2
  | Found angular grid specification: user-specified.
  | Specified grid contains     5 separate shells.
  | Check grid settings after all constraints further below.
  | Found free-atom valence shell :  3 s   2.000
  | Found free-atom valence shell :  3 p   5.000
  | Found free-ion valence shell :  3 s   1.000
  | Found free-ion valence shell :  3 p   4.000
  | Found ionic basis function :  3 d , default cutoff radius.
  | Found hydrogenic basis function :  2 p   1.900
  | Found hydrogenic basis function :  4 f   7.400
  | Found ionic basis function :  3 s , default cutoff radius.
  | Found hydrogenic basis function :  5 g  10.400
  | Found hydrogenic basis function :  3 d   3.300
  Species Cl                  : Missing cutoff potential type.
  Defaulting to exp(1/x)/(1-x)^2 type cutoff potential.
  Species Cl: No 'logarithmic' tag. Using default grid for free atom:
  | Default logarithmic grid data [bohr] : 0.1000E-03 0.1000E+03 0.1012E+01
  | Will include ionic basis functions of  2.0-fold positive Cl                   ion.
  Species Cl: On-site basis accuracy parameter (for Gram-Schmidt orthonormalisation) not specified.
  Using default value basis_acc =  0.1000000E-03.
  Species Cl                  : Using default innermost maximum threshold i_radial=  2 for radial functions.
  Species Cl                  : Default cutoff onset for free atom density etc. : 0.40000000E+01 AA.
  Species Cl                  : Basic radial grid will be enhanced according to radial_multiplier =   2, to contain    91 grid points.
 
  Reading configuration options for species Ge                  .
  | Found nuclear charge :  32.0000
  | Found atomic mass :    72.6400000000000      amu
  | Found l_max for Hartree potential  :   6
  | Found cutoff potl. onset [A], width [A], scale factor :    4.00000    2.00000    1.00000
  | Threshold for basis-dependent cutoff potential is   0.100000E-03
  | Found data for basic radial integration grid :    54 points, outermost radius =    7.000 A
  | Found multiplier for basic radial grid :   2
  | Found angular grid specification: user-specified.
  | Specified grid contains     5 separate shells.
  | Check grid settings after all constraints further below.
  | Found free-atom valence shell :  4 s   2.000
  | Found free-atom valence shell :  4 p   2.000
  | Found free-atom valence shell :  3 d  10.000
  | Found free-ion valence shell :  4 s   1.000
  | Found free-ion valence shell :  4 p   1.000
  | Found free-ion valence shell :  3 d  10.000
  | Found hydrogenic basis function :  2 p   1.400
  | Found hydrogenic basis function :  3 d   4.300
  | Found hydrogenic basis function :  4 f   7.400
  | Found hydrogenic basis function :  3 s   3.400
  Species Ge                  : Missing cutoff potential type.
  Defaulting to exp(1/x)/(1-x)^2 type cutoff potential.
  Species Ge: No 'logarithmic' tag. Using default grid for free atom:
  | Default logarithmic grid data [bohr] : 0.1000E-03 0.1000E+03 0.1012E+01
  Species Ge: On-site basis accuracy parameter (for Gram-Schmidt orthonormalisation) not specified.
  Using default value basis_acc =  0.1000000E-03.
  Species Ge                  : Using default innermost maximum threshold i_radial=  2 for radial functions.
  Species Ge                  : Default cutoff onset for free atom density etc. : 0.40000000E+01 AA.
  Species Ge                  : Basic radial grid will be enhanced according to radial_multiplier =   2, to contain   109 grid points.
 
  Finished reading input file 'control.in'. Consistency checks are next.
 
  MPI_IN_PLACE appears to work with this MPI implementation.
  | Keeping use_mpi_in_place .true. (see manual).
  Target number of points in a grid batch is not set. Defaulting to  100
  Method for grid partitioning is not set. Defaulting to parallel hash+maxmin partitioning.
  Batch size limit is not set. Defaulting to    200
  By default, will store active basis functions for each batch.
  If in need of memory, prune_basis_once .false. can be used to disable this option.
  communication_type for Hartree potential was not specified.
  Defaulting to calc_hartree .
  Defaulting to Pulay charge density mixer.
  Pulay mixer: Number of relevant iterations not set.
  Defaulting to    8 iterations.
  Pulay mixer: Number of initial linear mixing iterations not set.
  Defaulting to    0 iterations.
  Work space size for distributed Hartree potential not set.
  Defaulting to   0.200000E+03 MB.
  Mixing parameter for charge density mixing has not been set.
  Using default: charge_mix_param =     0.0500.
  The mixing parameter will be adjusted in iteration number     2 of the first full s.c.f. cycle only.
  Algorithm-dependent basis array size parameters:
  | n_max_pulay                         :        8
  Maximum number of self-consistency iterations not provided.
  Presetting  1000 iterations.
  Presetting      1001 iterations before the initial mixing cycle
  is restarted anyway using the sc_init_iter criterion / keyword.
  Presetting a factor      1.000 between actual scf density residual
  and density convergence criterion sc_accuracy_rho below which sc_init_iter
  takes no effect.
  Geometry relaxation not requested: no relaxation will be performed.
  Handling of forces: Unphysical translation and rotation will be removed from forces.
  No accuracy limit for integral partition fn. given. Defaulting to  0.1000E-14.
  No threshold value for u(r) in integrations given. Defaulting to  0.1000E-05.
  No occupation type (smearing scheme) given. Defaulting to Gaussian broadening, width =  0.1000E-01 eV.
  The width will be adjusted in iteration number     2 of the first full s.c.f. cycle only.
  S.C.F. convergence parameters will be adjusted in iteration number     2 of the first full s.c.f. cycle only.
  No accuracy for occupation numbers given. Defaulting to  0.1000E-12.
  No threshold value for occupation numbers given. Defaulting to  0.0000E+00.
  No accuracy for fermi level given. Defaulting to  0.1000E-19.
  Maximum # of iterations to find E_F not set. Defaulting to  200.
  Preferred method for the eigenvalue solver ('KS_method') not specified in 'control.in'.
  Defaulting to serial version, 'lapack_fast', since more k-points than CPUs available.
  Will not use alltoall communication since running on < 1024 CPUs.
  Threshold for basis singularities not set.
  Default threshold for basis singularities:  0.1000E-04
  partition_type (choice of integration weights) for integrals was not specified.
  | Using a version of the partition function of Stratmann and coworkers ('stratmann_smoother').
  | At each grid point, the set of atoms used to build the partition table is smoothly restricted to
  | only those atoms whose free-atom density would be non-zero at that grid point.
  Partitioning for Hartree potential was not defined. Using partition_type for integrals.
  | Adjusted default value of keyword multip_moments_threshold to:       0.10000000E-11
  | This value may affect high angular momentum components of the Hartree potential in periodic systems.
  Spin handling was not defined in control.in. Defaulting to unpolarized case.
  Angular momentum expansion for Kerker preconditioner not set explicitly.
  | Using default value of   0
  No explicit requirement for turning off preconditioner.
  | By default, it will be turned off when the charge convergence reaches
  | sc_accuracy_rho  =   0.100000E-05
  | sc_accuracy_eev  =   0.100000E-02
  | sc_accuracy_etot =   0.100000E-05
  No special mixing parameter while Kerker preconditioner is on.
  Using default: charge_mix_param =     0.0500.
  No q(lm)/r^(l+1) cutoff set for long-range Hartree potential.
  | Using default value of  0.100000E-09 .
  | Verify using the multipole_threshold keyword.
  Defaulting to new monopole extrapolation.
  Density update method: automatic selection selected.
  Using density matrix based charge density update.
  Using density matrix based charge density update.
  Using packed matrix style: index .
  Defaulting to use time-reversal symmetry for k-point grid.
------------------------------------------------------------


------------------------------------------------------------
          Reading geometry description geometry.in.
------------------------------------------------------------
 * Warning! You did not set the 'relativistic' flag in input file 'control.in'.
 * Since you are not attempting to treat any elements beyond Ca(Z=20), FHI-aims
 * will default to 'relativistic none'.
 * You must ensure that this is really what you want!!
 * For example, DO NOT compute total-energy differences between results from
 * different settings of the 'relativistic' flag.
  Input structure read successfully.
  The structure contains       48 atoms,  and a total of        512.000 electrons.

  Input geometry:
  | Unit cell:
  |        9.79901977        0.00000000        0.00000000
  |        0.00000000        9.79901977        0.00000000
  |        0.00000000        0.00000000        9.79901977
  | Atomic structure:
  |       Atom                x [A]            y [A]            z [A]
  |    1: Species Li            3.03832640        0.27754273        6.58970621
  |    2: Species Li            3.24427917        0.01978294        2.90800083
  |    3: Species Li            6.69501408        3.10600038        0.28688463
  |    4: Species Li            6.88826611        6.66112644       -0.01442094
  |    5: Species Li            0.31329946        6.74138919        3.15032055
  |    6: Species Li            9.46296390        6.59490852        6.78424200
  |    7: Species Li           -0.10633500        3.10137283        6.68698863
  |    8: Species Li            3.52091160        5.13845101        1.64212986
  |    9: Species Li            6.64526554        8.04648190        5.08807819
  |   10: Species Li            6.36673855        1.73597100        4.61957902
  |   11: Species Li            3.08144204        7.63289743        4.72155265
  |   12: Species Li            0.02362985        2.09917825        2.00061806
  |   13: Species Li            7.89601419        0.01524853        1.72459555
  |   14: Species Li            8.02750988        9.72057073        8.08600213
  |   15: Species Li            2.20477342        3.78337740        4.99687269
  |   16: Species Li            4.64242687        3.27116873        7.73602653
  |   17: Species Li            7.87476083        4.59181689        3.46984006
  |   18: Species Li            1.66721789        8.24197263        0.16747832
  |   19: Species Li            1.74918526        1.95841455        9.41919572
  |   20: Species Li            4.81430084        6.67156278        7.82177986
  |   21: Species P             0.00807933       -0.01167317        4.86912364
  |   22: Species P             4.84405492        0.05984901       -0.13267901
  |   23: Species P             0.05049938        4.93948848        0.07709353
  |   24: Species P             5.00663311        4.82273288        4.77000367
  |   25: Species S             1.13911101        8.55596590        6.03976332
  |   26: Species S             8.51058442        1.09534376        5.99567330
  |   27: Species S             8.63975923        8.59596505        3.68454188
  |   28: Species S             1.25365389        1.21740878        3.83750528
  |   29: Species S             6.01642835        1.27989854        8.50876900
  |   30: Species S             5.95226077        8.64970557        1.05772154
  |   31: Species S             3.63951715        8.68854591        8.48530334
  |   32: Species S             3.65999203        1.27778942        0.96372688
  |   33: Species S             8.63624030        5.89862532        1.43006185
  |   34: Species S             1.05479667        6.24735195        8.71439311
  |   35: Species S             8.66618928        3.74335385        8.75014801
  |   36: Species S             1.40655820        3.84098349        1.15124609
  |   37: Species S             6.02101542        6.18814720        3.68150884
  |   38: Species S             6.26179951        3.75426718        5.95141015
  |   39: Species S             4.04495547        3.57572885        3.49153290
  |   40: Species S             3.59263639        5.70266317        5.98750846
  |   41: Species Cl            2.34315239        2.46873820        7.18152900
  |   42: Species Cl            7.24029903        7.46398997        7.40948814
  |   43: Species Cl            4.68934011       -0.23040629        4.84402331
  |   44: Species Cl            5.10990855        4.98027558       -0.25575933
  |   45: Species Cl           -0.04923135        0.25763795        0.16471614
  |   46: Species Cl            0.02974185        4.90750279        4.97306878
  |   47: Species Cl            7.52042343        2.32838888        2.44729831
  |   48: Species Cl            2.44688926        7.44963997        2.43746842

  Lattice parameters for 3D lattice (in Angstroms) :     9.799020    9.799020    9.799020
  Angle(s) between unit vectors (in degrees)      :    90.000000   90.000000   90.000000

  |

  | The smallest distance between any two atoms is         2.01710527 AA.
  |
  | The first atom of this pair is atom number                     23 .
  | The second atom of this pair is atom number                    34 .
  | Wigner-Seitz cell of the first atom image           0     0     0 .
  | (The Wigner-Seitz cell of the second atom is 0 0 0  by definition.)

  Symmetry information by spglib:
  | Precision set to  0.1E-04
  | Number of Operations  : 1
  | Space group           : 1
  | International         : P1
  | Schoenflies           : C1^1

  Quantities derived from the lattice vectors:
  | Reciprocal lattice vector 1:  0.641205  0.000000  0.000000
  | Reciprocal lattice vector 2:  0.000000  0.641205  0.000000
  | Reciprocal lattice vector 3:  0.000000  0.000000  0.641205
  | Unit cell volume                               :   0.940910E+03  A^3

  Range separation radius for Ewald summation (hartree_convergence_parameter):      3.85865039 bohr.

  Fractional coordinates:
                         L1                L2                L3
       atom_frac         0.31006432        0.02832352        0.67248627  Li
       atom_frac         0.33108201        0.00201887        0.29676446  Li
       atom_frac         0.68323304        0.31697052        0.02927687  Li
       atom_frac         0.70295461        0.67977477       -0.00147167  Li
       atom_frac         0.03197253        0.68796567        0.32149344  Li
       atom_frac         0.96570515        0.67301717        0.69233884  Li
       atom_frac        -0.01085160        0.31649827        0.68241404  Li
       atom_frac         0.35931263        0.52438419        0.16758103  Li
       atom_frac         0.67815615        0.82115172        0.51924359  Li
       atom_frac         0.64973219        0.17715762        0.47143277  Li
       atom_frac         0.31446432        0.77894500        0.48183928  Li
       atom_frac         0.00241145        0.21422329        0.20416512  Li
       atom_frac         0.80579633        0.00155613        0.17599674  Li
       atom_frac         0.81921560        0.99199420        0.82518480  Li
       atom_frac         0.22499938        0.38609754        0.50993597  Li
       atom_frac         0.47376442        0.33382612        0.78946943  Li
       atom_frac         0.80362741        0.46859961        0.35410073  Li
       atom_frac         0.17014129        0.84110175        0.01709133  Li
       atom_frac         0.17850615        0.19985821        0.96123857  Li
       atom_frac         0.49130433        0.68083981        0.79822064  Li
       atom_frac         0.00082450       -0.00119126        0.49689905  P
       atom_frac         0.49434076        0.00610765       -0.01354003  P
       atom_frac         0.00515351        0.50407986        0.00786747  P
       atom_frac         0.51093203        0.49216483        0.48678376  P
       atom_frac         0.11624745        0.87314508        0.61636403  S
       atom_frac         0.86851385        0.11178095        0.61186460  S
       atom_frac         0.88169628        0.87722703        0.37601127  S
       atom_frac         0.12793666        0.12423781        0.39162134  S
       atom_frac         0.61398267        0.13061496        0.86832859  S
       atom_frac         0.60743431        0.88271131        0.10794157  S
       atom_frac         0.37141645        0.88667501        0.86593389  S
       atom_frac         0.37350593        0.13039972        0.09834931  S
       atom_frac         0.88133717        0.60196075        0.14593928  S
       atom_frac         0.10764308        0.63754866        0.88931274  S
       atom_frac         0.88439349        0.38201309        0.89296156  S
       atom_frac         0.14354070        0.39197630        0.11748584  S
       atom_frac         0.61445079        0.63150676        0.37570175  S
       atom_frac         0.63902305        0.38312681        0.60734750  S
       atom_frac         0.41279185        0.36490679        0.35631451  S
       atom_frac         0.36663222        0.58196262        0.61103137  S
       atom_frac         0.23912110        0.25193726        0.73288239  Cl
       atom_frac         0.73887993        0.76170782        0.75614585  Cl
       atom_frac         0.47855196       -0.02351320        0.49433754  Cl
       atom_frac         0.52147140        0.50824222       -0.02610050  Cl
       atom_frac        -0.00502411        0.02629222        0.01680945  Cl
       atom_frac         0.00303519        0.50081568        0.50750676  Cl
       atom_frac         0.76746691        0.23761447        0.24974930  Cl
       atom_frac         0.24970755        0.76024339        0.24874615  Cl

  Number of empty states per atom not set in control.in - providing a guess from actual geometry.
  | Total number of empty states used during s.c.f. cycle:      114
  If you use a very high smearing, use empty_states (per atom!) in control.in to increase this value.

  Structure-dependent array size parameters: 
  | Maximum number of distinct radial functions  :       55
  | Maximum number of basis functions            :     1692
  | Number of Kohn-Sham states (occupied + empty):      370
------------------------------------------------------------

------------------------------------------------------------
          Preparing all fixed parts of the calculation.
------------------------------------------------------------
  Determining machine precision:
    2.225073858507201E-308
  Setting up grids for atomic and cluster calculations.

  Creating wave function, potential, and density for free atoms.

  Species: Li

  List of occupied orbitals and eigenvalues:
    n    l              occ      energy [Ha]    energy [eV]
    1    0           2.0000        -1.901473       -51.7417
    2    0           1.0000        -0.103132        -2.8064


  Species: P

  List of occupied orbitals and eigenvalues:
    n    l              occ      energy [Ha]    energy [eV]
    1    0           2.0000       -76.356288     -2077.7603
    2    0           2.0000        -6.358286      -173.0178
    3    0           2.0000        -0.509419       -13.8620
    2    1           6.0000        -4.573976      -124.4642
    3    1           3.0000        -0.201560        -5.4847


  Species: S

  List of occupied orbitals and eigenvalues:
    n    l              occ      energy [Ha]    energy [eV]
    1    0           2.0000       -88.108280     -2397.5483
    2    0           2.0000        -7.732485      -210.4116
    3    0           2.0000        -0.629532       -17.1304
    2    1           6.0000        -5.750324      -156.4743
    3    1           4.0000        -0.257562        -7.0086


  Species: Cl

  List of occupied orbitals and eigenvalues:
    n    l              occ      energy [Ha]    energy [eV]
    1    0           2.0000      -100.710795     -2740.4802
    2    0           2.0000        -9.222997      -250.9705
    3    0           2.0000        -0.754245       -20.5241
    2    1           6.0000        -7.039872      -191.5647
    3    1           5.0000        -0.316221        -8.6048


  Species: Ge

  List of occupied orbitals and eigenvalues:
    n    l              occ      energy [Ha]    energy [eV]
    1    0           2.0000      -397.001973    -10802.9733
    2    0           2.0000       -49.131904     -1336.9471
    3    0           2.0000        -5.983904      -162.8303
    4    0           2.0000        -0.415506       -11.3065
    2    1           6.0000       -43.739541     -1190.2135
    3    1           6.0000        -4.198710      -114.2527
    4    1           2.0000        -0.141032        -3.8377
    3    2          10.0000        -1.103726       -30.0339

  Creating fixed part of basis set: Ionic, confined, hydrogenic.
 
  Li                   hydrogenic:
 
  List of hydrogenic basis orbitals: 
    n    l      effective z      eigenvalue [eV]  inner max. [A]     outer max. [A]     outer radius [A]   
    2    1         1.600000        -8.7048           1.319365           1.319365           6.386418
    2    0         2.000000       -13.6052           0.203259           1.385485           6.232164
    3    2         2.600000       -10.2084           1.835332           1.835332           6.386418
    3    1         4.600000       -31.9883           0.343834           1.385485           5.381805
    2    1         1.800000       -11.0199           1.181903           1.181903           6.386418
    3    0         6.200000       -58.1113           0.062858           1.111823           4.371906
    4    2         4.700000       -18.7772           0.761113           2.401695           6.386418
    4    3         4.100000       -14.2833           2.073992           2.073992           6.386418
 
 
  P                    ion:

  List of free ionic orbitals and eigenvalues:
    n    l      energy [Ha]    energy [eV]
    1    0       -77.297133     -2103.3620
    2    0        -7.273914      -197.9333
    3    0        -1.267536       -34.4914
    2    1        -5.491316      -149.4263
    3    1        -0.913470       -24.8568


  List of ionic basis orbitals and eigenvalues:
    n    l      energy [Ha]    energy [eV]    outer radius [A]
    3    2        -0.458060       -12.4644       5.404780
    3    1        -0.913461       -24.8565       4.724723
    3    0        -1.267529       -34.4912       4.232463

 
  P                    hydrogenic:
 
  List of hydrogenic basis orbitals: 
    n    l      effective z      eigenvalue [eV]  inner max. [A]     outer max. [A]     outer radius [A]   
    4    3         6.200000       -32.6870           1.357793           1.357793           5.339109
    5    4         8.600000       -40.2502           1.534356           1.534356           5.404780
    4    2         6.200000       -32.6848           0.577014           1.820771           5.404780
 
 
  S                    ion:

  List of free ionic orbitals and eigenvalues:
    n    l      energy [Ha]    energy [eV]
    1    0       -89.127201     -2425.2745
    2    0        -8.724378      -237.4024
    3    0        -1.464668       -39.8556
    2    1        -6.744348      -183.5230
    3    1        -1.048520       -28.5317


  List of ionic basis orbitals and eigenvalues:
    n    l      energy [Ha]    energy [eV]    outer radius [A]
    3    2        -0.496514       -13.5108       5.386362
    3    0        -1.464662       -39.8555       3.967934

 
  S                    hydrogenic:
 
  List of hydrogenic basis orbitals: 
    n    l      effective z      eigenvalue [eV]  inner max. [A]     outer max. [A]     outer radius [A]   
    2    1         1.800000       -11.0118           1.168531           1.168531           5.452614
    4    3         7.000000       -41.6672           1.212182           1.212182           5.066981
    4    2         6.200000       -32.6848           0.582121           1.814567           5.386362
    5    4        10.800000       -63.4785           1.227092           1.227092           4.766538
 
 
  Cl                   ion:

  List of free ionic orbitals and eigenvalues:
    n    l      energy [Ha]    energy [eV]
    1    0      -101.807232     -2770.3157
    2    0       -10.290876      -280.0290
    3    0        -1.664625       -45.2967
    2    1        -8.110237      -220.6908
    3    1        -1.183915       -32.2160


  List of ionic basis orbitals and eigenvalues:
    n    l      energy [Ha]    energy [eV]    outer radius [A]
    3    2        -0.529392       -14.4055       5.389057
    3    0        -1.664620       -45.2966       3.780461

 
  Cl                   hydrogenic:
 
  List of hydrogenic basis orbitals: 
    n    l      effective z      eigenvalue [eV]  inner max. [A]     outer max. [A]     outer radius [A]   
    2    1         1.900000       -12.2741           1.113321           1.113321           5.389057
    4    3         7.400000       -46.5653           1.140877           1.140877           4.886961
    5    4        10.400000       -58.8635           1.273568           1.273568           4.886961
    3    2         3.300000       -16.4532           1.439178           1.439178           5.455343
 
 
  Ge                   hydrogenic:
 
  List of hydrogenic basis orbitals: 
    n    l      effective z      eigenvalue [eV]  inner max. [A]     outer max. [A]     outer radius [A]   
    2    1         1.400000        -6.6027           1.497690           1.497690           5.472700
    3    2         4.300000       -27.9518           1.103293           1.103293           5.275625
    4    3         7.400000       -46.5653           1.144507           1.144507           4.902509
    3    0         3.400000       -17.4423           0.114943           2.033073           5.472700
 

  Adding cutoff potential to free-atom effective potential.
  Creating atomic-like basis functions for current effective potential.

  Species Li                  :

  List of atomic basis orbitals and eigenvalues:
    n    l      energy [Ha]    energy [eV]    outer radius [A]
    1    0        -1.901473       -51.7417       4.318785
    2    0        -0.103132        -2.8064       6.464971


  Species P                   :

  List of atomic basis orbitals and eigenvalues:
    n    l      energy [Ha]    energy [eV]    outer radius [A]
    1    0       -76.356288     -2077.7603       0.736837
    2    0        -6.358286      -173.0178       2.532824
    3    0        -0.509419       -13.8620       5.274236
    2    1        -4.573976      -124.4642       2.862183
    3    1        -0.201560        -5.4847       5.404780


  Species S                   :

  List of atomic basis orbitals and eigenvalues:
    n    l      energy [Ha]    energy [eV]    outer radius [A]
    1    0       -88.108280     -2397.5483       0.682391
    2    0        -7.732485      -210.4116       2.317169
    3    0        -0.629532       -17.1304       5.256262
    2    1        -5.750324      -156.4743       2.555240
    3    1        -0.257562        -7.0086       5.386362


  Species Cl                  :

  List of atomic basis orbitals and eigenvalues:
    n    l      energy [Ha]    energy [eV]    outer radius [A]
    1    0      -100.710795     -2740.4802       0.642251
    2    0        -9.222997      -250.9705       2.128190
    3    0        -0.754245       -20.5241       5.194994
    2    1        -7.039872      -191.5647       2.346844
    3    1        -0.316221        -8.6048       5.323577


  Species Ge                  :

  List of atomic basis orbitals and eigenvalues:
    n    l      energy [Ha]    energy [eV]    outer radius [A]
    1    0      -397.001973    -10802.9733       0.332955
    2    0       -49.131904     -1336.9471       0.964471
    3    0        -5.983904      -162.8303       2.660457
    4    0        -0.415506       -11.3065       5.340515
    2    1       -43.739541     -1190.2135       0.988343
    3    1        -4.198710      -114.2527       3.043392
    4    1        -0.141032        -3.8377       5.406203
    3    2        -1.103726       -30.0339       4.842941

  Assembling full basis from fixed parts.
  | Species Li :   atomic orbital   1 s accepted.
  | Species Li :    hydro orbital   3 s accepted.
  | Species Li :    hydro orbital   2 s accepted.
  | Species Li :   atomic orbital   2 s accepted.
  | Species Li :    hydro orbital   3 p accepted.
  | Species Li :    hydro orbital   2 p accepted.
  | Species Li :    hydro orbital   2 p accepted.
  | Species Li :    hydro orbital   3 d accepted.
  | Species Li :    hydro orbital   4 d accepted.
  | Species Li :    hydro orbital   4 f accepted.
  | Species P :   atomic orbital   1 s accepted.
  | Species P :   atomic orbital   2 s accepted.
  | Species P :    ionic orbital   3 s accepted.
  | Species P :   atomic orbital   3 s accepted.
  | Species P :   atomic orbital   2 p accepted.
  | Species P :    ionic orbital   3 p accepted.
  | Species P :   atomic orbital   3 p accepted.
  | Species P :    ionic orbital   3 d accepted.
  | Species P :    hydro orbital   4 d accepted.
  | Species P :    hydro orbital   4 f accepted.
  | Species P :    hydro orbital   5 g accepted.
  | Species S :   atomic orbital   1 s accepted.
  | Species S :   atomic orbital   2 s accepted.
  | Species S :    ionic orbital   3 s accepted.
  | Species S :   atomic orbital   3 s accepted.
  | Species S :   atomic orbital   2 p accepted.
  | Species S :   atomic orbital   3 p accepted.
  | Species S :    hydro orbital   2 p accepted.
  | Species S :    ionic orbital   3 d accepted.
  | Species S :    hydro orbital   4 d accepted.
  | Species S :    hydro orbital   4 f accepted.
  | Species S :    hydro orbital   5 g accepted.
  | Species Cl :   atomic orbital   1 s accepted.
  | Species Cl :   atomic orbital   2 s accepted.
  | Species Cl :    ionic orbital   3 s accepted.
  | Species Cl :   atomic orbital   3 s accepted.
  | Species Cl :   atomic orbital   2 p accepted.
  | Species Cl :   atomic orbital   3 p accepted.
  | Species Cl :    hydro orbital   2 p accepted.
  | Species Cl :    ionic orbital   3 d accepted.
  | Species Cl :    hydro orbital   3 d accepted.
  | Species Cl :    hydro orbital   4 f accepted.
  | Species Cl :    hydro orbital   5 g accepted.
  | Species Ge :   atomic orbital   1 s accepted.
  | Species Ge :   atomic orbital   2 s accepted.
  | Species Ge :   atomic orbital   3 s accepted.
  | Species Ge :   atomic orbital   4 s accepted.
  | Species Ge :    hydro orbital   3 s accepted.
  | Species Ge :   atomic orbital   2 p accepted.
  | Species Ge :   atomic orbital   3 p accepted.
  | Species Ge :   atomic orbital   4 p accepted.
  | Species Ge :    hydro orbital   2 p accepted.
  | Species Ge :   atomic orbital   3 d accepted.
  | Species Ge :    hydro orbital   3 d accepted.
  | Species Ge :    hydro orbital   4 f accepted.
 
  Basis size parameters after reduction:
  | Total number of radial functions:       55
  | Total number of basis functions :     1692
 
  Per-task memory consumption for arrays in subroutine allocate_ext:
  |          14.980084MB.
  Testing on-site integration grid accuracy.
  |  Species  Function  <phi|h_atom|phi> (log., in eV)  <phi|h_atom|phi> (rad., in eV)
           1        1                -51.7417001117                -51.7417000312
           1        2                 33.5927188637                 33.5926505054
           1        3                 69.1469416012                 69.1473382425
           1        4                 48.8336153902                 48.8810182289 ***
           1        5                 17.1749490570                 17.1749098864
           1        6                 32.1201183828                 32.1217831653
           1        7                  6.0166019876                  6.0249480535
           1        8                  4.9175332206                  4.9194842525
           1        9                 28.8010599263                 28.8011051086
           1       10                  9.9331480983                  9.9353515081
           2       11              -2077.7602992527              -2077.7602630746
           2       12               -173.0177635265               -173.0177629291
           2       13                -13.5620523038                -13.5620521963
           2       14                  6.3015351439                  6.3015396353
           2       15               -124.4642131574               -124.4642129967
           2       16                 -4.8468074573                 -4.8468065719
           2       17                  5.8113348591                  5.8108493787
           2       18                  5.1218113540                  5.1217878152
           2       19                 22.1386653152                 22.1386624883
           2       20                 19.3047268689                 19.3047231214
           2       21                 30.3235883931                 30.3235836780
           3       22              -2397.5482725833              -2397.5482291499
           3       23               -210.4116306505               -210.4116300246
           3       24                -16.8591546483                -16.8591544436
           3       25                  7.5848976656                  7.5849001027
           3       26               -156.4742745766               -156.4742744285
           3       27                 -7.0089268331                 -7.0089287934
           3       28                  6.8790437028                  6.8789536772
           3       29                  6.0023049431                  6.0023019693
           3       30                 19.5634804122                 19.5634829634
           3       31                 24.6809503130                 24.6809503093
           3       32                 47.5107032033                 47.5107040524
           4       33              -2740.4801671239              -2740.4801157382
           4       34               -250.9705040601               -250.9705032686
           4       35                -20.2716828479                -20.2716826054
           4       36                  9.0161300765                  9.0161279813
           4       37               -191.5646602865               -191.5646600866
           4       38                 -8.6049187754                 -8.6049181478
           4       39                  7.6458046208                  7.6458222053
           4       40                  6.9765726558                  6.9765744583
           4       41                 16.6546700656                 16.6546956458
           4       42                 28.0343243807                 28.0343233726
           4       43                 45.0370063060                 45.0370052039
           5       44             -10802.9733414751             -10802.9729425948
           5       45              -1336.9471188055              -1336.9471110723
           5       46               -162.8303199730               -162.8303191139
           5       47                -11.3065970458                -11.3065974621
           5       48                  3.9107640727                  3.9106883215
           5       49              -1190.2134555916              -1190.2134541175
           5       50               -114.2527084804               -114.2527080190
           5       51                 -3.8416627318                 -3.8416744430
           5       52                  4.9939274213                  4.9938228637
           5       53                -30.0339196701                -30.0339195807
           5       54                  9.6865334021                  9.6865320095
           5       55                 25.2138836360                 25.2138837585
 * Note: Onsite integrals marked "***" above are less accurate than
 * onsite_accuracy_threshold =    0.03000 eV. Usually, this is harmless.
 * When in doubt, tighten the "radial" and/or "radial_multiplier" flags to check.

  Preparing densities etc. for the partition functions (integrals / Hartree potential).

  Preparations completed.
  max(cpu_time)          :      0.557 s.
  Wall clock time (cpu1) :      0.559 s.
------------------------------------------------------------

------------------------------------------------------------
          Begin self-consistency loop: Initialization.

          Date     :  20220324, Time     :  021816.032
------------------------------------------------------------

  Initializing index lists of integration centers etc. from given atomic structure:
  Mapping all atomic coordinates to central unit cell.

  Initializing the k-points
          Using symmetry for reducing the k-points
  | k-points reduced from:      125 to       63
  | Number of k-points                             :        63
  The eigenvectors in the calculations are COMPLEX.
  | K-points in task   0:         3
  | K-points in task   1:         4
  | K-points in task   2:         4
  | K-points in task   3:         4
  | K-points in task   4:         3
  | K-points in task   5:         3
  | K-points in task   6:         3
  | K-points in task   7:         3
  | K-points in task   8:         3
  | K-points in task   9:         3
  | K-points in task  10:         3
  | K-points in task  11:         3
  | K-points in task  12:         3
  | K-points in task  13:         3
  | K-points in task  14:         3
  | K-points in task  15:         3
  | K-points in task  16:         3
  | K-points in task  17:         3
  | K-points in task  18:         3
  | K-points in task  19:         3
  | Number of basis functions in the Hamiltonian integrals :     14216
  | Number of basis functions in a single unit cell        :      1692
  | Number of centers in hartree potential         :      2191
  | Number of centers in hartree multipole         :      1570
  | Number of centers in electron density summation:      1239
  | Number of centers in basis integrals           :      1294
  | Number of centers in integrals                 :       497
  | Number of centers in hamiltonian               :      1486
  | Consuming         80 KiB for k_phase.
  | Number of super-cells (origin) [n_cells]                     :         343
  | Number of super-cells (after PM_index) [n_cells]             :          82
  | Number of super-cells in hamiltonian [n_cells_in_hamiltonian]:          82
  | Size of matrix packed + index [n_hamiltonian_matrix_size] :     8792724
  Partitioning the integration grid into batches with parallel hashing+maxmin method.
  | Number of batches:    10678
  | Maximal batch size:     120
  | Minimal batch size:      49
  | Average batch size:      95.116
  | Standard deviation of batch sizes:      13.739

  Integration load balanced across    20 MPI tasks.
  Work distribution over tasks is as follows:
  Task     0 has      50749 integration points.
  Task     1 has      50764 integration points.
  Task     2 has      50762 integration points.
  Task     3 has      50768 integration points.
  Task     4 has      50859 integration points.
  Task     5 has      50772 integration points.
  Task     6 has      50773 integration points.
  Task     7 has      50769 integration points.
  Task     8 has      50752 integration points.
  Task     9 has      50775 integration points.
  Task    10 has      50758 integration points.
  Task    11 has      50759 integration points.
  Task    12 has      50834 integration points.
  Task    13 has      50815 integration points.
  Task    14 has      50852 integration points.
  Task    15 has      50752 integration points.
  Task    16 has      50753 integration points.
  Task    17 has      50756 integration points.
  Task    18 has      50775 integration points.
  Task    19 has      50851 integration points.
  Initializing partition tables, free-atom densities, potentials, etc. across the integration grid (initialize_grid_storage).
  | initialize_grid_storage: Actual outermost partition radius vs. multipole_radius_free
  | (-- VB: in principle, multipole_radius_free should be larger, hence this output)
  | Species        1: Confinement radius =              7.000000000000000 AA, multipole_radius_free =              7.042572113910259 AA.
  | Species        1: outer_partition_radius set to              7.042572113910259 AA .
  | Species        2: Confinement radius =              6.000000000000000 AA, multipole_radius_free =              6.033387558927091 AA.
  | Species        2: outer_partition_radius set to              6.033387558927091 AA .
  | Species        3: Confinement radius =              6.000000000000000 AA, multipole_radius_free =              6.012827091137924 AA.
  | Species        3: outer_partition_radius set to              6.012827091137924 AA .
  | Species        4: Confinement radius =              6.000000000000000 AA, multipole_radius_free =              6.015836048499353 AA.
  | Species        4: outer_partition_radius set to              6.015836048499353 AA .
  | Species        5: Confinement radius =              6.000000000000000 AA, multipole_radius_free =              6.034976375468270 AA.
  | Species        5: outer_partition_radius set to              6.034976375468270 AA .
  | Original list of interatomic distances with        1294 x       1294 entries is created.
  | Net number of integration points:  1015648
  | of which are non-zero points    :   811829
  | Numerical average free-atom electrostatic potential    :    -10.55586870 eV
  Renormalizing the initial density to the exact electron count on the 3D integration grid.
  | Initial density: Formal number of electrons (from input files) :     512.0000000000
  | Integrated number of electrons on 3D grid     :     511.9997560467
  | Charge integration error                      :      -0.0002439533
  | Normalization factor for density and gradient :       1.0000004765
  Obtaining max. number of non-zero basis functions in each batch (get_n_compute_maxes).
  | Maximal number of non-zero basis functions:     1781 in task     0
  | Maximal number of non-zero basis functions:     1786 in task     1
  | Maximal number of non-zero basis functions:     1824 in task     2
  | Maximal number of non-zero basis functions:     1803 in task     3
  | Maximal number of non-zero basis functions:     1783 in task     4
  | Maximal number of non-zero basis functions:     1809 in task     5
  | Maximal number of non-zero basis functions:     1786 in task     6
  | Maximal number of non-zero basis functions:     1817 in task     7
  | Maximal number of non-zero basis functions:     1796 in task     8
  | Maximal number of non-zero basis functions:     1791 in task     9
  | Maximal number of non-zero basis functions:     1805 in task    10
  | Maximal number of non-zero basis functions:     1777 in task    11
  | Maximal number of non-zero basis functions:     1806 in task    12
  | Maximal number of non-zero basis functions:     1823 in task    13
  | Maximal number of non-zero basis functions:     1814 in task    14
  | Maximal number of non-zero basis functions:     1811 in task    15
  | Maximal number of non-zero basis functions:     1818 in task    16
  | Maximal number of non-zero basis functions:     1818 in task    17
  | Maximal number of non-zero basis functions:     1781 in task    18
  | Maximal number of non-zero basis functions:     1809 in task    19
  Allocating       30.050 MB for KS_eigenvector_complex
  Integrating Hamiltonian matrix: batch-based integration.
  Time summed over all CPUs for integration: real work      355.381 s, elapsed      359.760 s
  Integrating overlap matrix.
  Time summed over all CPUs for integration: real work      264.005 s, elapsed      267.046 s
  Decreasing sparse matrix size:
   Tolerance:  9.999999824516700E-014
   Hamiltonian matrix
  | Array has  7794420 nonzero elements out of  8792724 elements
  | Sparsity factor is 0.114
   Overlap matrix
  | Array has  7353307 nonzero elements out of  8792724 elements
  | Sparsity factor is 0.164
  New size of hamiltonian matrix:     7794523

  Updating Kohn-Sham eigenvalues and eigenvectors using ELSI and the ELPA eigensolver.
  Overlap matrix is nonsingular
  | Lowest eigenvalue of overlap  :  0.42E-04
  | Highest eigenvalue of overlap :  0.12E+02
  Finished singularity check of overlap matrix
  | Time :     3.392 s
  Finished Cholesky decomposition
  | Time :     0.449 s
  Finished transformation to standard eigenproblem
  | Time :     0.761 s
  Starting LAPACK eigensolver
  Finished solving standard eigenproblem
  | Time :     3.523 s
  Finished back-transformation of eigenvectors
  | Time :     0.132 s

  Obtaining occupation numbers and chemical potential using ELSI.
  | Chemical potential (Fermi level):    -5.38268668eV
  Writing Kohn-Sham eigenvalues.
  K-point:       1 at    0.000000    0.000000    0.000000 (in units of recip. lattice)

  State    Occupation    Eigenvalue [Ha]    Eigenvalue [eV]
      1       2.00000        -100.765712        -2741.97454
      2       2.00000        -100.764176        -2741.93273
      3       2.00000        -100.762479        -2741.88656
      4       2.00000        -100.762466        -2741.88620
      5       2.00000        -100.761291        -2741.85423
      6       2.00000        -100.760474        -2741.83200
      7       2.00000        -100.759946        -2741.81764
      8       2.00000        -100.758355        -2741.77434
      9       2.00000         -88.156492        -2398.86020
     10       2.00000         -88.155156        -2398.82385
     11       2.00000         -88.155145        -2398.82355
     12       2.00000         -88.154654        -2398.81018
     13       2.00000         -88.154393        -2398.80308
     14       2.00000         -88.152025        -2398.73865
     15       2.00000         -88.151369        -2398.72080
     16       2.00000         -88.150807        -2398.70550
     17       2.00000         -88.149668        -2398.67452
     18       2.00000         -88.149393        -2398.66702
     19       2.00000         -88.148309        -2398.63752
     20       2.00000         -88.148221        -2398.63514
     21       2.00000         -88.148211        -2398.63486
     22       2.00000         -88.147629        -2398.61901
     23       2.00000         -88.147561        -2398.61717
     24       2.00000         -88.146648        -2398.59232
     25       2.00000         -76.398724        -2078.91506
     26       2.00000         -76.394284        -2078.79423
     27       2.00000         -76.393812        -2078.78139
     28       2.00000         -76.393486        -2078.77251
     29       2.00000          -9.279958         -252.52051
[...]
    304       0.00000           0.003367            0.09163
    305       0.00000           0.006309            0.17166
    306       0.00000           0.008462            0.23027
    307       0.00000           0.009771            0.26587
    308       0.00000           0.012521            0.34071
    309       0.00000           0.015085            0.41049
    310       0.00000           0.015793            0.42974
    311       0.00000           0.018644            0.50733
    312       0.00000           0.020224            0.55032
    313       0.00000           0.021675            0.58981
    314       0.00000           0.025290            0.68816
    315       0.00000           0.025751            0.70072
    316       0.00000           0.027183            0.73968
    317       0.00000           0.030011            0.81663
    318       0.00000           0.032189            0.87590
    319       0.00000           0.035109            0.95537
    320       0.00000           0.037002            1.00687
    321       0.00000           0.038598            1.05032
    322       0.00000           0.040914            1.11332
    323       0.00000           0.043108            1.17303
    324       0.00000           0.044567            1.21273
    325       0.00000           0.044857            1.22063
    326       0.00000           0.046857            1.27505
    327       0.00000           0.047926            1.30413
    328       0.00000           0.049964            1.35959
    329       0.00000           0.051990            1.41471
    330       0.00000           0.054156            1.47365
    331       0.00000           0.057188            1.55618
    332       0.00000           0.059061            1.60714
    333       0.00000           0.061654            1.67769
    334       0.00000           0.063182            1.71926
    335       0.00000           0.065404            1.77974
    336       0.00000           0.068511            1.86429
    337       0.00000           0.069036            1.87855
    338       0.00000           0.069658            1.89548
    339       0.00000           0.072521            1.97340
    340       0.00000           0.073198            1.99182
    341       0.00000           0.074577            2.02934
    342       0.00000           0.077476            2.10823
    343       0.00000           0.078948            2.14828
    344       0.00000           0.080828            2.19945
    345       0.00000           0.083711            2.27790
    346       0.00000           0.085475            2.32591
    347       0.00000           0.089335            2.43093
    348       0.00000           0.091424            2.48776
    349       0.00000           0.095462            2.59765
    350       0.00000           0.099722            2.71359
    351       0.00000           0.101752            2.76882
    352       0.00000           0.103843            2.82571
    353       0.00000           0.108042            2.93998
    354       0.00000           0.110803            3.01511
    355       0.00000           0.116408            3.16764
    356       0.00000           0.119701            3.25724
    357       0.00000           0.123183            3.35198
    358       0.00000           0.125699            3.42043
    359       0.00000           0.129999            3.53746
    360       0.00000           0.131190            3.56987
    361       0.00000           0.132097            3.59454
    362       0.00000           0.137330            3.73695
    363       0.00000           0.141357            3.84651
    364       0.00000           0.141888            3.86097
    365       0.00000           0.142899            3.88849
    366       0.00000           0.145792            3.96719
    367       0.00000           0.148388            4.03785
    368       0.00000           0.153222            4.16939
    369       0.00000           0.155671            4.23603
    370       0.00000           0.159419            4.33800

  What follows are estimated values for band gap, HOMO, LUMO, etc.
  | They are estimated on a discrete k-point grid and not necessarily exact.
  | For converged numbers, create a DOS and/or band structure plot on a denser k-grid.

  Highest occupied state (VBM) at     -7.33231756 eV (relative to internal zero)
  | Occupation number:      2.00000000
  | K-point:      47 at    0.400000    0.600000    0.600000 (in units of recip. lattice)

  Lowest unoccupied state (CBM) at    -5.06824961 eV (relative to internal zero)
  | Occupation number:      0.00000001
  | K-point:       1 at    0.000000    0.000000    0.000000 (in units of recip. lattice)

  ESTIMATED overall HOMO-LUMO gap:      2.26406795 eV between HOMO at k-point 47 and LUMO at k-point 1
  | This appears to be an indirect band gap.
  | Smallest direct gap :      2.30460487 eV for k_point 1 at    0.000000    0.000000    0.000000 (in units of recip. lattice)
  The gap value is above 0.2 eV. Unless you are using a very sparse k-point grid,
  this system is most likely an insulator or a semiconductor.

  Self-consistency cycle converged.

  End self-consistency iteration #    21       :  max(cpu_time)    wall_clock(cpu1)
  | Time for this iteration                    :      418.297 s         418.275 s
  | Charge density & force component update    :      360.718 s         360.697 s
  | Density mixing                             :        0.021 s           0.021 s
  | Hartree multipole update                   :        0.014 s           0.014 s
  | Hartree multipole summation                :       20.917 s          20.915 s
  | Integration                                :       18.150 s          18.150 s
  | Solution of K.-S. eqns.                    :       18.472 s          18.471 s
  | Total energy evaluation                    :        0.002 s           0.004 s

  Partial memory accounting:
  | Current value for overall tracked memory usage on task 0  :         185.943 MB
  | Peak value for overall tracked memory usage on task 0     :         369.207 MB after allocating eigenvalue_tmp
  | Largest tracked array allocation on task 0 so far         :          70.342 MB  when allocating overlap_matrix
  Note:  These values currently only include a subset of arrays which are explicitly tracked.
  The "true" memory usage will be greater.
------------------------------------------------------------
  |------------------------------------------
  | Final ELSI Output
  |------------------------------------------
  | Number of basis functions :         1692
  | Number of electrons       :        512.0
  | Number of states          :          370
  | Solver                    :         ELPA
  | Parallel mode             :  SINGLE_PROC
  | Matrix format             :  BLACS_DENSE
  |------------------------------------------
  | ELSI Project (c)  elsi-interchange.org
  |------------------------------------------
  Removing unitary transformations (pure translations, rotations) from forces on atoms.
  Atomic forces before filtering:
  | Net force on center of mass :   0.633965E-03  0.350891E-02  0.556510E-04 eV/A
  Atomic forces after filtering:
  | Net force on center of mass :   0.947783E-16  0.302454E-15 -0.334511E-16 eV/A

  Energy and forces in a compact form:
  | Total energy uncorrected      :         -0.314749561223912E+06 eV
  | Total energy corrected        :         -0.314749561223912E+06 eV  <-- do not rely on this value for anything but (periodic) metals
  | Electronic free energy        :         -0.314749561223912E+06 eV
  Total atomic forces (unitary forces cleaned) [eV/Ang]:
  |   1         -0.844386388810778E-02          0.108112090910140E-01         -0.291966937926616E-01
  |   2          0.233095573289433E-02         -0.311160003271825E-01          0.223554939074979E-02
  |   3         -0.753467597482100E-02          0.967759338271290E-02          0.127090673101622E-01
  |   4          0.217646543265048E-02         -0.630497480469197E-02         -0.311225684484316E-01
  |   5          0.886322664952951E-02         -0.205063892528830E-01          0.398770015425454E-01
  |   6         -0.210278990549258E-01         -0.616566023259910E-02         -0.185539159474398E-01
  |   7          0.246223506904410E-01          0.853672570733066E-02         -0.113212932435820E-01
  |   8          0.379945376876295E-02          0.366932278059865E-01          0.248314357316088E-01
  |   9          0.388737366692480E-02          0.315317597939926E-01          0.289206088307488E-01
  |  10         -0.244535192242561E-01         -0.848255460672357E-02         -0.298458097881989E-01
  |  11          0.334582872974187E-01          0.128189898202244E-01          0.239160298447393E-03
  |  12         -0.190079882136634E-01         -0.120774807110028E-01         -0.329665303368261E-01
  |  13         -0.259395226033686E-02          0.233027488240281E-01         -0.115776555833220E-01
  |  14          0.355314271061538E-02         -0.268818432842089E-01          0.264950470773714E-01
  |  15         -0.177640860688989E-01         -0.263115096654007E-01          0.226940848916242E-01
  |  16         -0.318742354849990E-01          0.316973668697999E-01         -0.115170141390598E-01
  |  17         -0.986632855430213E-02         -0.390495626852939E-01          0.210263904782144E-01
  |  18          0.146729068071582E-01          0.238238022628648E-01          0.312320964611286E-01
  |  19         -0.257558553402711E-01         -0.127829724048803E-01         -0.189256295184657E-01
  |  20          0.301699773568953E-01         -0.173278783888931E-02         -0.147817692179076E-01
  |  21         -0.771345036843188E-02         -0.720245704823656E-02         -0.337386189559412E-02
  |  22          0.232224146936614E-01         -0.100188758314904E-01         -0.472720876769984E-01
  |  23         -0.508368290484909E-02          0.518941405711707E-03          0.378993200746851E-01
  |  24         -0.363157613221740E-01          0.350925172915290E-01          0.421342501574434E-01
  |  25          0.210317644194316E+00         -0.262504302664390E+00          0.245600661205985E+00
  |  26         -0.276084750112973E+00          0.212513420755863E+00          0.210644762780812E+00
  |  27         -0.236806997598267E+00         -0.239738337484248E+00         -0.224688470290018E+00
  |  28          0.288190567005815E+00          0.272387065928708E+00         -0.170155325613486E+00
  |  29          0.225630769914838E+00          0.228716111507238E+00         -0.230525538513127E+00
  |  30          0.190472113894110E+00         -0.256073543361527E+00          0.259357039704262E+00
  |  31         -0.237892423944458E+00         -0.225341751132980E+00         -0.196911854315159E+00
  |  32         -0.231806990455357E+00          0.286522464241302E+00          0.238261308339314E+00
  |  33         -0.219247725248026E+00          0.183887319119501E+00          0.246616652673246E+00
  |  34          0.241509812614405E+00          0.280775379713350E+00         -0.252714392561347E+00
  |  35         -0.253228683188779E+00         -0.246303734259342E+00         -0.240670166366030E+00
  |  36          0.291926720971003E+00         -0.171455623213432E+00          0.206306127659898E+00
  |  37          0.189119825481606E+00          0.304104024647937E+00         -0.271619100575125E+00
  |  38          0.312392914456595E+00         -0.211646832131023E+00          0.239947868349073E+00
  |  39         -0.170231822153647E+00         -0.306700798480424E+00         -0.287524331838002E+00
  |  40         -0.242812318672440E+00          0.115075456751602E+00          0.244591050265278E+00
  |  41         -0.108324822275930E-01          0.334113542816064E-01         -0.172247825377324E-01
  |  42         -0.823980396891686E-02         -0.131546151384436E-01          0.798673859486744E-02
  |  43          0.277179703868241E-01          0.133852806099420E-01         -0.301869556706898E-02
  |  44         -0.134670984902437E-01         -0.143834300980928E-01          0.156573815985834E-01
  |  45          0.374861574168991E-02         -0.340797327522297E-02         -0.176625045807007E-01
  |  46         -0.636074568402758E-02          0.105761513196517E-01         -0.442854092167506E-02
  |  47         -0.369378977738726E-01          0.404278387892790E-02          0.198945186142560E-01
  |  48          0.296015287104859E-01         -0.105576850782139E-01         -0.475595887623455E-01

  ------------------------------------ 
  Start decomposition of the XC Energy 
  ------------------------------------ 
  X and C from original XC functional choice 
  Hartree-Fock Energy :          0.000000000 Ha              0.000000000 eV
  X Energy            :       -745.315459996 Ha         -20281.065555745 eV
  C Energy            :        -19.329311933 Ha           -525.977339128 eV
  Total XC Energy     :       -764.644771929 Ha         -20807.042894873 eV
  ------------------------------------ 
  LDA X and C from self-consistent density 
  X Energy LDA        :       -689.925895578 Ha         -18773.838821081 eV
  C Energy LDA        :        -38.820927022 Ha          -1056.371171841 eV
  ------------------------------------ 
  End decomposition of the XC Energy 
  ------------------------------------ 

------------------------------------------------------------

------------------------------------------------------------------------------
  Final output of selected total energy values:

  The following output summarizes some interesting total energy values
  at the end of a run (AFTER all relaxation, molecular dynamics, etc.).

  | Total energy of the DFT / Hartree-Fock s.c.f. calculation      :        -314749.561223912 eV
  | Final zero-broadening corrected energy (caution - metals only) :        -314749.561223912 eV
  | For reference only, the value of 1 Hartree used in FHI-aims is :             27.211384500 eV

  Before relying on these values, please be sure to understand exactly which
  total energy value is referred to by a given number. Different objects may
  all carry the same name 'total energy'. Definitions:

  Total energy of the DFT / Hartree-Fock s.c.f. calculation:
  | Note that this energy does not include ANY quantities calculated after the
  | s.c.f. cycle, in particular not ANY RPA, MP2, etc. many-body perturbation terms.

  Final zero-broadening corrected energy:
  | For metallic systems only, a broadening of the occupation numbers at the Fermi
  | level can be extrapolated back to zero broadening by an electron-gas inspired
  | formula. For all systems that are not real metals, this value can be
  | meaningless and should be avoided.

------------------------------------------------------------------------------
  Methods described in the following list of references were used in this FHI-aims run.
  If you publish the results, please make sure to cite these reference if they apply.
  FHI-aims is an academic code, and for our developers (often, Ph.D. students
  and postdocs), scientific credit in the community is essential.
  Thank you for helping us!

  For any use of FHI-aims, please cite:

    Volker Blum, Ralf Gehrke, Felix Hanke, Paula Havu, Ville Havu,
    Xinguo Ren, Karsten Reuter, and Matthias Scheffler
    'Ab initio molecular simulations with numeric atom-centered orbitals'
    Computer Physics Communications 180, 2175-2196 (2009)
    http://dx.doi.org/10.1016/j.cpc.2009.06.022


  The provided symmetry information was generated with SPGlib:

    Atsushi Togo, Yusuke Seto, Dimitar Pashov
    SPGlib 1.7.3 obtained from http://spglib.sourceforge.net
    Copyright (C) 2008 Atsushi Togo


  The scalable eigensolver library ELPA was used in your run.
  ELPA is essential especially for large systems on hundreds or thousands of CPUs.
  For ELPA, please cite:

    Andreas Marek, Volker Blum, Rainer Johanni, Ville Havu, Bruno Lang,
    Thomas Auckenthaler, Alexander Heinecke, Hans-Joachim Bungartz, and Hermann Lederer,
    'The ELPA Library - Scalable Parallel Eigenvalue Solutions
    for Electronic Structure Theory and Computational Science'
    The Journal of Physics: Condensed Matter 26, 213201 (2014).
    http://dx.doi.org/10.1088/0953-8984/26/21/213201


  The ELSI infrastructure was used in your run to solve the Kohn-Sham electronic structure.
  Please check out http://elsi-interchange.org to learn more.
  If scalability is important for your project, please acknowledge ELSI by citing:

    V. W-z. Yu, F. Corsetti, A. Garcia, W. P. Huhn, M. Jacquelin, W. Jia,
    B. Lange, L. Lin, J. Lu, W. Mi, A. Seifitokaldani, A. Vazquez-Mayagoitia,
    C. Yang, H. Yang, and V. Blum
    'ELSI: A unified software interface for Kohn-Sham electronic structure solvers'
    Computer Physics Communications 222, 267-285 (2018).
    http://dx.doi.org/10.1016/j.cpc.2017.09.007


  For the real-space grid partitioning and parallelization used in this calculation, please cite:

    Ville Havu, Volker Blum, Paula Havu, and Matthias Scheffler,
    'Efficient O(N) integration for all-electron electronic structure calculation'
    'using numerically tabulated basis functions'
    Journal of Computational Physics 228, 8367-8379 (2009).
    http://dx.doi.org/10.1016/j.jcp.2009.08.008

  Of course, there are many other important community references, e.g., those cited in the
  above references. Our list is limited to references that describe implementations in the
  FHI-aims code. The reason is purely practical (length of this list) - please credit others as well.

------------------------------------------------------------
          Leaving FHI-aims.
          Date     :  20220324, Time     :  025622.749

          Computational steps:
          | Number of self-consistency cycles          :           21
          | Number of SCF (re)initializations          :            1

          Detailed time accounting                     :  max(cpu_time)    wall_clock(cpu1)
          | Total time                                 :     2287.339 s        2287.373 s
          | Preparation time                           :        0.557 s           0.559 s
          | Boundary condition initalization           :        0.403 s           0.402 s
          | Grid partitioning                          :        1.473 s           1.472 s
          | Preloading free-atom quantities on grid    :        0.049 s           0.048 s
          | Free-atom superposition energy             :        0.627 s           0.628 s
          | Total time for integrations                :      411.862 s         411.835 s
          | Total time for solution of K.-S. equations :      418.257 s         418.235 s
          | Total time for density & force components  :     1222.074 s        1221.985 s
          | Total time for mixing & preconditioning    :       67.550 s          67.550 s
          | Total time for Hartree multipole update    :        0.301 s           0.301 s
          | Total time for Hartree multipole sum       :      157.862 s         157.856 s
          | Total time for total energy evaluation     :        0.052 s           0.054 s

          Partial memory accounting:
          | Residual value for overall tracked memory usage across tasks :           0.000 MB (should be 0.000 MB)
          | Peak values for overall tracked memory usage (after allocating eigenvalue_tmp):
          |   Minimum:      369.207 MB (on task  1)
          |   Maximum:      379.224 MB (on task  2)
          |   Average:      370.709 MB
          | Largest tracked array allocation (overlap_matrix):
          |   Minimum:       70.342 MB (on task  1)
          |   Maximum:       70.342 MB (on task  1)
          |   Average:       70.342 MB
          Note:  These values currently only include a subset of arrays which are explicitly tracked.
          The "true" memory usage will be greater.

          Have a nice day.
------------------------------------------------------------
