  MPI-parallelism will be employed.
------------------------------------------------------------
          Invoking FHI-aims ...
          Version 171221_1
          Compiled on 2020/09/23 at 19:46:43 on host login.service.

          When using FHI-aims, please cite the following reference:

          Volker Blum, Ralf Gehrke, Felix Hanke, Paula Havu,
          Ville Havu, Xinguo Ren, Karsten Reuter, and Matthias Scheffler,
          'Ab Initio Molecular Simulations with Numeric Atom-Centered Orbitals',
          Computer Physics Communications 180, 2175-2196 (2009)

          For any questions about FHI-aims, please visit the aimsclub website
          with its forums and wiki. Contributions to both the forums and the
          wiki are warmly encouraged - they are for you, and everyone is welcome there.

------------------------------------------------------------



  Date     :  20220723, Time     :  171019.157
  Time zero on CPU 1             :   0.859300000000000E-01  s.
  Internal wall clock time zero  :           427828219.157  s.

  FHI-aims created a unique identifier for this run for later identification
  aims_uuid : 196C52AC-589F-4E02-A35B-DB4EE260EE73

  Using       20 parallel tasks.
  Task        0 on host node043 reporting.
  Task        1 on host node043 reporting.
  Task        2 on host node043 reporting.
  Task        3 on host node043 reporting.
  Task        4 on host node043 reporting.
  Task        5 on host node043 reporting.
  Task        6 on host node043 reporting.
  Task        7 on host node043 reporting.
  Task        8 on host node043 reporting.
  Task        9 on host node043 reporting.
  Task       10 on host node043 reporting.
  Task       11 on host node043 reporting.
  Task       12 on host node043 reporting.
  Task       13 on host node043 reporting.
  Task       14 on host node043 reporting.
  Task       15 on host node043 reporting.
  Task       16 on host node043 reporting.
  Task       17 on host node043 reporting.
  Task       18 on host node043 reporting.
  Task       19 on host node043 reporting.

  Performing system and environment tests:
  *** Environment variable OMP_NUM_THREADS is not set
  *** For performance reasons you might want to set it to 1
  | Maximum stacksize for task 0: unlimited
  | Maximum stacksize for task 1: unlimited
  | Maximum stacksize for task 2: unlimited
  | Maximum stacksize for task 3: unlimited
  | Maximum stacksize for task 4: unlimited
  | Maximum stacksize for task 5: unlimited
  | Maximum stacksize for task 6: unlimited
  | Maximum stacksize for task 7: unlimited
  | Maximum stacksize for task 8: unlimited
  | Maximum stacksize for task 9: unlimited
  | Maximum stacksize for task 10: unlimited
  | Maximum stacksize for task 11: unlimited
  | Maximum stacksize for task 12: unlimited
  | Maximum stacksize for task 13: unlimited
  | Maximum stacksize for task 14: unlimited
  | Maximum stacksize for task 15: unlimited
  | Maximum stacksize for task 16: unlimited
  | Maximum stacksize for task 17: unlimited
  | Maximum stacksize for task 18: unlimited
  | Maximum stacksize for task 19: unlimited
  | Current stacksize for task 0: unlimited
  | Current stacksize for task 1: unlimited
  | Current stacksize for task 2: unlimited
  | Current stacksize for task 3: unlimited
  | Current stacksize for task 4: unlimited
  | Current stacksize for task 5: unlimited
  | Current stacksize for task 6: unlimited
  | Current stacksize for task 7: unlimited
  | Current stacksize for task 8: unlimited
  | Current stacksize for task 9: unlimited
  | Current stacksize for task 10: unlimited
  | Current stacksize for task 11: unlimited
  | Current stacksize for task 12: unlimited
  | Current stacksize for task 13: unlimited
  | Current stacksize for task 14: unlimited
  | Current stacksize for task 15: unlimited
  | Current stacksize for task 16: unlimited
  | Current stacksize for task 17: unlimited
  | Current stacksize for task 18: unlimited
  | Current stacksize for task 19: unlimited
  | Checking for scalapack...
  | Testing pdtran()...
  | All pdtran() tests passed.

  Obtaining array dimensions for all initial allocations:
  
  -----------------------------------------------------------------------
  Parsing control.in (first pass over file, find array dimensions only).
  The contents of control.in will be repeated verbatim below
  unless switched off by setting 'verbatim_writeout .false.' .
  in the first line of control.in .
  -----------------------------------------------------------------------
  
  #===============================================================================
  # FHI-aims file: ./control.in
  # Created using the Atomic Simulation Environment (ASE)
  # Wed Mar 24 12:41:28 2021
  #===============================================================================
  xc                                 pbe
  sc_accuracy_etot                   1e-06
  sc_accuracy_eev                    0.001
  sc_accuracy_rho                    1e-06
  sc_accuracy_forces                 0.0001
  friction_temperature               300  # default 300
  
    k_grid                           3  3  3
  
  
  ################################################################################
  #
  #  FHI-aims code project
  #  VB, Fritz-Haber Institut, 2009
  #
  #  Suggested "light" defaults for Li atom (to be pasted into control.in file)
  #  Be sure to double-check any results obtained with these settings for post-processing,
  #  e.g., with the "tight" defaults and larger basis sets.
  #
  ################################################################################
    species        Li
  #     global species definitions
      nucleus             3
      mass                6.941
  #
      l_hartree           4
  #
      cut_pot             3.5  1.5  1.0
      basis_dep_cutoff    1e-4
  #
      radial_base         29 5.0
      radial_multiplier   1
      angular_grids       specified
        division   0.4484  110
        division   0.5659  194
        division   0.6315  302
  #      division   0.6662  434
  #      division   0.8186  590
  #      division   0.9037  770
  #      division   6.2760  974
  #      outer_grid   974
        outer_grid   302
  ################################################################################
  #
  #  Definition of "minimal" basis
  #
  ################################################################################
  #     valence basis states
      valence      2  s   1.
  #     ion occupancy
      ion_occ      1  s   2.
  ################################################################################
  #
  #  Suggested additional basis functions. For production calculations,
  #  uncomment them one after another (the most important basis functions are
  #  listed first).
  #
  #  Constructed for dimers: 1.80 A, 2.25 A, 2.75 A, 3.50 A, 4.50 A
  #
  ################################################################################
  #  "First tier" - improvements: -189.23 meV to -6.35 meV
       hydro 2 p 1.6
       hydro 2 s 2
       hydro 3 d 2.6
  #  "Second tier" - improvements: -4.69 meV to -0.41 meV
  #     hydro 3 p 4.6
  #     hydro 2 p 1.8
  #     hydro 3 s 6.2
  #     hydro 4 d 4.7
  #     hydro 4 f 4.1
  #  "Third tier" - improvements: -0.20 meV to -0.15 meV
  #     hydro 4 d 0.95
  #     hydro 3 p 6.2
  #     hydro 3 s 1.7
  #  Further functions, listed for completeness
  #     VB: The following functions are only listed for completeness; test very
  #         carefully before any kind of production use. From the point of view
  #         of the basis construction, their main role is to fill up space,
  #         and they are solely determined by the location of the cutoff potential.
  #     hydro 3 p 0.1  # -0.15 meV
  #     hydro 4 d 5    # -0.12 meV
  #     hydro 4 f 0.1  # -0.14 meV
  #     hydro 5 g 0.1  # -0.06 meV
  
  
  ################################################################################
  #
  #  FHI-aims code project
  #  VB, Fritz-Haber Institut, 2010
  #
  #  Suggested "light" defaults for P atom (to be pasted into control.in file)
  #  Be sure to double-check any results obtained with these settings for post-processing,
  #  e.g., with the "tight" defaults and larger basis sets.
  #
  ################################################################################
    species        P
  #     global species definitions
      nucleus             15
      mass                30.973762
  #
      l_hartree           4
  #
      cut_pot             3.5          1.5  1.0
      basis_dep_cutoff    1e-4
  #
      radial_base         43 5.0
      radial_multiplier   1
      angular_grids       specified
        division   0.5527   50
        division   0.8801  110
        division   1.1447  194
        division   1.3165  302
  #      division   1.4113  434
  #      division   1.4781  590
  #      division   1.5482  770
  #      division   1.5845  974
  #      division   2.2606 1202
        outer_grid  302
  ################################################################################
  #
  #  Definition of "minimal" basis
  #
  ################################################################################
  #     valence basis states
      valence      3  s   2.
      valence      3  p   3.
  #     ion occupancy
      ion_occ      3  s   1.
      ion_occ      3  p   2.
  ################################################################################
  #
  #  Suggested additional basis functions. For production calculations,
  #  uncomment them one after another (the most important basis functions are
  #  listed first).
  #
  #  Constructed for dimers: 1.625 A, 1.875 A, 2.5 A, 3.25 A, 4.0 A
  #
  ################################################################################
  #  "First tier" - improvements: -726.20 meV to -35.91 meV
       ionic 3 d auto
       ionic 3 p auto
  #     hydro 4 f 6.2
  #     hydro 5 g 8.6
       ionic 3 s auto
  #  "Second tier" - improvements: -16.02 meV to -1.71 meV
  #     hydro 4 d 6.2
  #     hydro 4 p 9.2
  #     hydro 5 f 9.8
  #     hydro 1 s 0.7
  #     hydro 5 g 13.2
  #  "Third tier" - improvements: -1.82 meV to -0.20 meV
  #     hydro 3 p 2.5
  #     hydro 4 d 6.4
  #     hydro 5 f 11.2
  #     hydro 2 s 1.5
  #  "Fourth tier" - improvements: -0.91 meV to -0.17 meV
  #     hydro 3 d 16.8
  #     hydro 5 g 18
  #     hydro 4 p 4.5
  #     hydro 3 s 2.1
  #  Further basis functions that fell out of the optimization - < -0.09 meV
  #     hydro 4 p 10.4
  #     hydro 4 d 17.6
  #     hydro 4 s 11.2
  ################################################################################
  #
  #  FHI-aims code project
  #  VB, Fritz-Haber Institut, 2009
  #
  #  Suggested "light" defaults for S atom (to be pasted into control.in file)
  #  Be sure to double-check any results obtained with these settings for post-processing,
  #  e.g., with the "tight" defaults and larger basis sets.
  #
  ################################################################################
    species        S
  #     global species definitions
      nucleus             16
      mass                32.065
  #
      l_hartree           4
  #
      cut_pot             3.5          1.5  1.0
      basis_dep_cutoff    1e-4
  #
      radial_base         44 5.0
      radial_multiplier   1
      angular_grids       specified
        division   0.4665  110
        division   0.5810  194
        division   0.7139  302
  #      division   0.8274  434
  #      division   0.9105  590
  #      division   1.0975  770
  #      division   1.2028  974
  #      outer_grid  974
        outer_grid  302
  ################################################################################
  #
  #  Definition of "minimal" basis
  #
  ################################################################################
  #     valence basis states
      valence      3  s   2.
      valence      3  p   4.
  #     ion occupancy
      ion_occ      3  s   1.
      ion_occ      3  p   3.
  ################################################################################
  #
  #  Suggested additional basis functions. For production calculations,
  #  uncomment them one after another (the most important basis functions are
  #  listed first).
  #
  #  Constructed for dimers: 1.6 A, 1.9 A, 2.5 A, 3.25 A, 4.0 A
  #
  ################################################################################
  #  "First tier" - improvements: -652.81 meV to -45.53 meV
       ionic 3 d auto
       hydro 2 p 1.8
  #     hydro 4 f 7
       ionic 3 s auto
  #  "Second tier" - improvements: -30.20 meV to -1.74 meV
  #     hydro 4 d 6.2
  #     hydro 5 g 10.8
  #     hydro 4 p 4.9
  #     hydro 5 f 10
  #     hydro 1 s 0.8
  #  "Third tier" - improvements: -1.04 meV to -0.20 meV
  #     hydro 3 d 3.9
  #     hydro 3 d 2.7
  #     hydro 5 g 12
  #     hydro 4 p 10.4
  #     hydro 5 f 12.4
  #     hydro 2 s 1.9
  #  "Fourth tier" - improvements: -0.35 meV to -0.06 meV
  #     hydro 4 d 10.4
  #     hydro 4 p 7.2
  #     hydro 4 d 10
  #     hydro 5 g 19.2
  #     hydro 4 s 12
  
  ################################################################################
  #
  #  FHI-aims code project
  #  VB, Fritz-Haber Institut, 2009
  #
  #  Suggested "light" defaults for Cl atom (to be pasted into control.in file)
  #  Be sure to double-check any results obtained with these settings for post-processing,
  #  e.g., with the "tight" defaults and larger basis sets.
  #
  ################################################################################
    species        Cl
  #     global species definitions
      nucleus             17
      mass                35.453
  #
      l_hartree           4
  #
      cut_pot             3.5          1.5  1.0
      basis_dep_cutoff    1e-4
  #
      radial_base         45 5.0
      radial_multiplier   1
      angular_grids       specified
        division   0.4412  110
        division   0.5489  194
        division   0.6734  302
  #      division   0.7794  434
  #      division   0.9402  590
  #      division   1.0779  770
  #      division   1.1792  974
  #      outer_grid  974
        outer_grid  302
  ################################################################################
  #
  #  Definition of "minimal" basis
  #
  ################################################################################
  #     valence basis states
      valence      3  s   2.
      valence      3  p   5.
  #     ion occupancy
      ion_occ      3  s   1.
      ion_occ      3  p   4.
  ################################################################################
  #
  #  Suggested additional basis functions. For production calculations,
  #  uncomment them one after another (the most important basis functions are
  #  listed first).
  #
  #  Constructed for dimers: 1.65 A, 2.0 A, 2.5 A, 3.25 A, 4.0 A
  #
  ################################################################################
  #  "First tier" - improvements: -429.57 meV to -15.03 meV
       ionic 3 d auto
       hydro 2 p 1.9
  #     hydro 4 f 7.4
       ionic 3 s auto
  #     hydro 5 g 10.4
  #  "Second tier" - improvements: -7.84 meV to -0.48 meV
  #     hydro 3 d 3.3
  #     hydro 5 f 9.8
  #     hydro 1 s 0.75
  #     hydro 5 g 11.2
  #     hydro 4 p 10.4
  #  "Third tier" - improvements: -1.00 meV to -0.12 meV
  #     hydro 4 d 12.8
  #     hydro 4 f 4.6
  #     hydro 4 d 10.8
  #     hydro 2 s 1.8
  #     hydro 3 p 3
  #  Further functions that fell out - improvements: -0.10 meV and below
  #     hydro 5 f 14.4
  #     hydro 4 s 12.8
  #     hydro 3 d 11.6
  #     hydro 4 s 4.1
  
  -----------------------------------------------------------------------
  Completed first pass over input file control.in .
  -----------------------------------------------------------------------
  
  
  -----------------------------------------------------------------------
  Parsing geometry.in (first pass over file, find array dimensions only).
  The contents of geometry.in will be repeated verbatim below
  unless switched off by setting 'verbatim_writeout .false.' .
  in the first line of geometry.in .
  -----------------------------------------------------------------------
  
  #=======================================================
  # FHI-aims file: geometry.in.7
  # Created using the Atomic Simulation Environment (ASE)
  # Sat Jul 23 22:56:02 2022
  #=======================================================
  lattice_vector 9.8979997634999997 0.0000000000000000 0.0000000000000000
  lattice_vector 0.0000000000000000 9.8979997634999997 0.0000000000000000
  lattice_vector 0.0000000000000000 0.0000000000000000 9.8979997634999997
  atom 3.2473200699999998 0.7542660700000000 6.7699115399999998 Li
  atom 3.9802942799999999 0.0181059800000000 2.5809826199999999 Li
  atom 6.9902590399999998 3.2775764500000002 0.4462116200000000 Li
  atom 6.5916674799999999 6.8009916300000004 -0.1472097300000000 Li
  atom 0.3833744700000000 6.4523035899999996 2.8689328900000000 Li
  atom 9.3959718500000005 6.5423979100000000 7.0579313700000004 Li
  atom 0.1380336800000000 2.6712959900000000 6.3543574200000004 Li
  atom 3.6018387000000001 6.7761781599999997 3.8940580400000000 Li
  atom 6.6445333800000004 8.1403503700000002 4.9512242999999998 Li
  atom 5.3640257299999998 2.3839613599999998 2.6490887200000000 Li
  atom 1.5946898700000001 8.8776028399999998 3.4547539600000001 Li
  atom 0.6086209299999999 2.3276587300000000 2.3086035800000002 Li
  atom 7.6519219400000003 -0.1580507800000000 1.5409752299999999 Li
  atom 8.3566506100000009 10.1127021700000004 7.9213664399999999 Li
  atom 2.3449917400000002 8.7434280199999996 7.7042259299999998 Li
  atom 5.7318403000000000 5.9684054599999996 7.6703403600000000 Li
  atom 8.4408659799999999 5.3845362600000000 4.2466746899999999 Li
  atom 0.0804083800000000 9.0009870900000006 2.2033282000000001 Li
  atom 1.4873285599999999 2.0857927500000000 9.5622354000000005 Li
  atom 4.6999169199999997 7.3089890500000001 4.7743001500000002 Li
  atom 0.0081609400000000 -0.0117910800000000 4.9183067100000004 P
  atom 4.8929847700000000 0.0604535500000000 -0.1340192100000000 P
  atom 0.0510094800000000 4.9893822999999999 0.0778722500000000 P
  atom 5.0572051599999996 4.8714473600000003 4.8181855200000001 P
  atom 1.1506171900000000 8.6423898000000001 6.1007710299999998 S
  atom 8.5965499100000002 1.1064078399999999 6.0562356599999996 S
  atom 8.7270295299999994 8.6827929800000003 3.7217594799999998 S
  atom 1.2663170600000000 1.2297058400000000 3.8762679599999998 S
  atom 6.0772003500000000 1.2928268100000000 8.5947161600000008 S
  atom 6.0123846099999998 8.7370763300000007 1.0684056000000000 S
  atom 3.6762799500000001 8.7763089999999995 8.5710134799999995 S
  atom 3.6969616500000000 1.2906963800000000 0.9734614900000000 S
  atom 8.7234750499999993 5.9582073900000001 1.4445069200000000 S
  atom 1.0654511799999999 6.3104565099999999 8.8024172800000002 S
  atom 8.7537265499999997 3.7811655000000002 8.8385333399999997 S
  atom 1.4207658599999999 3.8797812999999999 1.1628748400000000 S
  atom 6.0818337600000003 6.2506537399999997 3.7186957999999999 S
  atom 6.3250500100000000 3.7921890700000001 6.0115254000000000 S
  atom 4.0858136099999998 3.6118473199999999 3.5268009100000000 S
  atom 3.6289256399999998 5.7602658299999998 6.0479883399999999 S
  atom 2.3668205900000001 2.4936749499999999 7.2540696999999996 Cl
  atom 7.3134333600000003 7.5393838000000004 7.4843314599999999 Cl
  atom 4.7367071799999998 -0.2327336200000000 4.8929528400000004 Cl
  atom 5.1615237900000004 5.0305814000000000 -0.2583427600000000 Cl
  atom -0.0497286300000000 0.2602403500000000 0.1663799400000000 Cl
  atom 0.0300422700000000 4.9570735299999997 5.0233017999999996 Cl
  atom 7.5963873000000000 2.3519079600000001 2.4720184900000000 Cl
  atom 2.4716053100000002 7.5248888599999999 2.4620893100000001 Cl
  
  -----------------------------------------------------------------------
  Completed first pass over input file geometry.in .
  -----------------------------------------------------------------------
  

  Basic array size parameters:
  | Number of species                 :        4
  | Number of atoms                   :       48
  | Number of lattice vectors         :        3
  | Max. basis fn. angular momentum   :        2
  | Max. atomic/ionic basis occupied n:        3
  | Max. number of basis fn. types    :        3
  | Max. radial fns per species/type  :        5
  | Max. logarithmic grid size        :     1362
  | Max. radial integration grid size :       45
  | Max. angular integration grid size:      302
  | Max. angular grid division number :        8
  | Radial grid for Hartree potential :     1362
  | Number of spin channels           :        1

------------------------------------------------------------
          Reading file control.in.
------------------------------------------------------------
  XC: Using PBE gradient-corrected functionals.
  Convergence accuracy of total energy:  0.1000E-05
  Convergence accuracy of sum of eigenvalues:  0.1000E-02
  Convergence accuracy of self-consistent charge density:  0.1000E-05
  Convergence accuracy of forces:  0.1000E-03
  Friction is calculated at temperature of   0.3000E+03 K
  Found k-point grid:         3         3         3
 
  Reading configuration options for species Li                  .
  | Found nuclear charge :   3.0000
  | Found atomic mass :    6.94100000000000      amu
  | Found l_max for Hartree potential  :   4
  | Found cutoff potl. onset [A], width [A], scale factor :    3.50000    1.50000    1.00000
  | Threshold for basis-dependent cutoff potential is   0.100000E-03
  | Found data for basic radial integration grid :    29 points, outermost radius =    5.000 A
  | Found multiplier for basic radial grid :   1
  | Found angular grid specification: user-specified.
  | Specified grid contains     4 separate shells.
  | Check grid settings after all constraints further below.
  | Found free-atom valence shell :  2 s   1.000
  | Found free-ion valence shell :  1 s   2.000
  | Found hydrogenic basis function :  2 p   1.600
  | Found hydrogenic basis function :  2 s   2.000
  | Found hydrogenic basis function :  3 d   2.600
  Species Li                  : Missing cutoff potential type.
  Defaulting to exp(1/x)/(1-x)^2 type cutoff potential.
  Species Li: No 'logarithmic' tag. Using default grid for free atom:
  | Default logarithmic grid data [bohr] : 0.1000E-03 0.1000E+03 0.1012E+01
  Species Li: On-site basis accuracy parameter (for Gram-Schmidt orthonormalisation) not specified.
  Using default value basis_acc =  0.1000000E-03.
  Species Li                  : Using default innermost maximum threshold i_radial=  2 for radial functions.
  Species Li                  : Default cutoff onset for free atom density etc. : 0.35000000E+01 AA.
  Species Li                  : Basic radial grid will be enhanced according to radial_multiplier =   1, to contain    29 grid points.
 
  Reading configuration options for species P                   .
  | Found nuclear charge :  15.0000
  | Found atomic mass :    30.9737620000000      amu
  | Found l_max for Hartree potential  :   4
  | Found cutoff potl. onset [A], width [A], scale factor :    3.50000    1.50000    1.00000
  | Threshold for basis-dependent cutoff potential is   0.100000E-03
  | Found data for basic radial integration grid :    43 points, outermost radius =    5.000 A
  | Found multiplier for basic radial grid :   1
  | Found angular grid specification: user-specified.
  | Specified grid contains     5 separate shells.
  | Check grid settings after all constraints further below.
  | Found free-atom valence shell :  3 s   2.000
  | Found free-atom valence shell :  3 p   3.000
  | Found free-ion valence shell :  3 s   1.000
  | Found free-ion valence shell :  3 p   2.000
  | Found ionic basis function :  3 d , default cutoff radius.
  | Found ionic basis function :  3 p , default cutoff radius.
  | Found ionic basis function :  3 s , default cutoff radius.
  Species P                   : Missing cutoff potential type.
  Defaulting to exp(1/x)/(1-x)^2 type cutoff potential.
  Species P : No 'logarithmic' tag. Using default grid for free atom:
  | Default logarithmic grid data [bohr] : 0.1000E-03 0.1000E+03 0.1012E+01
  | Will include ionic basis functions of  2.0-fold positive P                    ion.
  Species P : On-site basis accuracy parameter (for Gram-Schmidt orthonormalisation) not specified.
  Using default value basis_acc =  0.1000000E-03.
  Species P                   : Using default innermost maximum threshold i_radial=  2 for radial functions.
  Species P                   : Default cutoff onset for free atom density etc. : 0.35000000E+01 AA.
  Species P                   : Basic radial grid will be enhanced according to radial_multiplier =   1, to contain    43 grid points.
 
  Reading configuration options for species S                   .
  | Found nuclear charge :  16.0000
  | Found atomic mass :    32.0650000000000      amu
  | Found l_max for Hartree potential  :   4
  | Found cutoff potl. onset [A], width [A], scale factor :    3.50000    1.50000    1.00000
  | Threshold for basis-dependent cutoff potential is   0.100000E-03
  | Found data for basic radial integration grid :    44 points, outermost radius =    5.000 A
  | Found multiplier for basic radial grid :   1
  | Found angular grid specification: user-specified.
  | Specified grid contains     4 separate shells.
  | Check grid settings after all constraints further below.
  | Found free-atom valence shell :  3 s   2.000
  | Found free-atom valence shell :  3 p   4.000
  | Found free-ion valence shell :  3 s   1.000
  | Found free-ion valence shell :  3 p   3.000
  | Found ionic basis function :  3 d , default cutoff radius.
  | Found hydrogenic basis function :  2 p   1.800
  | Found ionic basis function :  3 s , default cutoff radius.
  Species S                   : Missing cutoff potential type.
  Defaulting to exp(1/x)/(1-x)^2 type cutoff potential.
  Species S : No 'logarithmic' tag. Using default grid for free atom:
  | Default logarithmic grid data [bohr] : 0.1000E-03 0.1000E+03 0.1012E+01
  | Will include ionic basis functions of  2.0-fold positive S                    ion.
  Species S : On-site basis accuracy parameter (for Gram-Schmidt orthonormalisation) not specified.
  Using default value basis_acc =  0.1000000E-03.
  Species S                   : Using default innermost maximum threshold i_radial=  2 for radial functions.
  Species S                   : Default cutoff onset for free atom density etc. : 0.35000000E+01 AA.
  Species S                   : Basic radial grid will be enhanced according to radial_multiplier =   1, to contain    44 grid points.
 
  Reading configuration options for species Cl                  .
  | Found nuclear charge :  17.0000
  | Found atomic mass :    35.4530000000000      amu
  | Found l_max for Hartree potential  :   4
  | Found cutoff potl. onset [A], width [A], scale factor :    3.50000    1.50000    1.00000
  | Threshold for basis-dependent cutoff potential is   0.100000E-03
  | Found data for basic radial integration grid :    45 points, outermost radius =    5.000 A
  | Found multiplier for basic radial grid :   1
  | Found angular grid specification: user-specified.
  | Specified grid contains     4 separate shells.
  | Check grid settings after all constraints further below.
  | Found free-atom valence shell :  3 s   2.000
  | Found free-atom valence shell :  3 p   5.000
  | Found free-ion valence shell :  3 s   1.000
  | Found free-ion valence shell :  3 p   4.000
  | Found ionic basis function :  3 d , default cutoff radius.
  | Found hydrogenic basis function :  2 p   1.900
  | Found ionic basis function :  3 s , default cutoff radius.
  Species Cl                  : Missing cutoff potential type.
  Defaulting to exp(1/x)/(1-x)^2 type cutoff potential.
  Species Cl: No 'logarithmic' tag. Using default grid for free atom:
  | Default logarithmic grid data [bohr] : 0.1000E-03 0.1000E+03 0.1012E+01
  | Will include ionic basis functions of  2.0-fold positive Cl                   ion.
  Species Cl: On-site basis accuracy parameter (for Gram-Schmidt orthonormalisation) not specified.
  Using default value basis_acc =  0.1000000E-03.
  Species Cl                  : Using default innermost maximum threshold i_radial=  2 for radial functions.
  Species Cl                  : Default cutoff onset for free atom density etc. : 0.35000000E+01 AA.
  Species Cl                  : Basic radial grid will be enhanced according to radial_multiplier =   1, to contain    45 grid points.
 
  Finished reading input file 'control.in'. Consistency checks are next.
 
  MPI_IN_PLACE appears to work with this MPI implementation.
  | Keeping use_mpi_in_place .true. (see manual).
  Target number of points in a grid batch is not set. Defaulting to  100
  Method for grid partitioning is not set. Defaulting to parallel hash+maxmin partitioning.
  Batch size limit is not set. Defaulting to    200
  By default, will store active basis functions for each batch.
  If in need of memory, prune_basis_once .false. can be used to disable this option.
  communication_type for Hartree potential was not specified.
  Defaulting to calc_hartree .
  Defaulting to Pulay charge density mixer.
  Pulay mixer: Number of relevant iterations not set.
  Defaulting to    8 iterations.
  Pulay mixer: Number of initial linear mixing iterations not set.
  Defaulting to    0 iterations.
  Work space size for distributed Hartree potential not set.
  Defaulting to   0.200000E+03 MB.
  Mixing parameter for charge density mixing has not been set.
  Using default: charge_mix_param =     0.0500.
  The mixing parameter will be adjusted in iteration number     2 of the first full s.c.f. cycle only.
  Algorithm-dependent basis array size parameters:
  | n_max_pulay                         :        8
  Maximum number of self-consistency iterations not provided.
  Presetting  1000 iterations.
  Presetting      1001 iterations before the initial mixing cycle
  is restarted anyway using the sc_init_iter criterion / keyword.
  Presetting a factor      1.000 between actual scf density residual
  and density convergence criterion sc_accuracy_rho below which sc_init_iter
  takes no effect.
  Geometry relaxation not requested: no relaxation will be performed.
  Handling of forces: Unphysical translation and rotation will be removed from forces.
  No accuracy limit for integral partition fn. given. Defaulting to  0.1000E-14.
  No threshold value for u(r) in integrations given. Defaulting to  0.1000E-05.
  No occupation type (smearing scheme) given. Defaulting to Gaussian broadening, width =  0.1000E-01 eV.
  The width will be adjusted in iteration number     2 of the first full s.c.f. cycle only.
  S.C.F. convergence parameters will be adjusted in iteration number     2 of the first full s.c.f. cycle only.
  No accuracy for occupation numbers given. Defaulting to  0.1000E-12.
  No threshold value for occupation numbers given. Defaulting to  0.0000E+00.
  No accuracy for fermi level given. Defaulting to  0.1000E-19.
  Maximum # of iterations to find E_F not set. Defaulting to  200.
  Preferred method for the eigenvalue solver ('KS_method') not specified in 'control.in'.
  Defaulting to serial version, 'lapack_fast', since more k-points than CPUs available.
  Will not use alltoall communication since running on < 1024 CPUs.
  Threshold for basis singularities not set.
  Default threshold for basis singularities:  0.1000E-04
  partition_type (choice of integration weights) for integrals was not specified.
  | Using a version of the partition function of Stratmann and coworkers ('stratmann_smoother').
  | At each grid point, the set of atoms used to build the partition table is smoothly restricted to
  | only those atoms whose free-atom density would be non-zero at that grid point.
  Partitioning for Hartree potential was not defined. Using partition_type for integrals.
  | Adjusted default value of keyword multip_moments_threshold to:       0.10000000E-11
  | This value may affect high angular momentum components of the Hartree potential in periodic systems.
  Spin handling was not defined in control.in. Defaulting to unpolarized case.
  Angular momentum expansion for Kerker preconditioner not set explicitly.
  | Using default value of   0
  No explicit requirement for turning off preconditioner.
  | By default, it will be turned off when the charge convergence reaches
  | sc_accuracy_rho  =   0.100000E-05
  | sc_accuracy_eev  =   0.100000E-02
  | sc_accuracy_etot =   0.100000E-05
  No special mixing parameter while Kerker preconditioner is on.
  Using default: charge_mix_param =     0.0500.
  No q(lm)/r^(l+1) cutoff set for long-range Hartree potential.
  | Using default value of  0.100000E-09 .
  | Verify using the multipole_threshold keyword.
  Defaulting to new monopole extrapolation.
  Density update method: automatic selection selected.
  Using density matrix based charge density update.
  Using density matrix based charge density update.
  Using packed matrix style: index .
  Defaulting to use time-reversal symmetry for k-point grid.
------------------------------------------------------------


------------------------------------------------------------
          Reading geometry description geometry.in.
------------------------------------------------------------
 * Warning! You did not set the 'relativistic' flag in input file 'control.in'.
 * Since you are not attempting to treat any elements beyond Ca(Z=20), FHI-aims
 * will default to 'relativistic none'.
 * You must ensure that this is really what you want!!
 * For example, DO NOT compute total-energy differences between results from
 * different settings of the 'relativistic' flag.
  Input structure read successfully.
  The structure contains       48 atoms,  and a total of        512.000 electrons.

  Input geometry:
  | Unit cell:
  |        9.89799976        0.00000000        0.00000000
  |        0.00000000        9.89799976        0.00000000
  |        0.00000000        0.00000000        9.89799976
  | Atomic structure:
  |       Atom                x [A]            y [A]            z [A]
  |    1: Species Li            3.24732007        0.75426607        6.76991154
  |    2: Species Li            3.98029428        0.01810598        2.58098262
  |    3: Species Li            6.99025904        3.27757645        0.44621162
  |    4: Species Li            6.59166748        6.80099163       -0.14720973
  |    5: Species Li            0.38337447        6.45230359        2.86893289
  |    6: Species Li            9.39597185        6.54239791        7.05793137
  |    7: Species Li            0.13803368        2.67129599        6.35435742
  |    8: Species Li            3.60183870        6.77617816        3.89405804
  |    9: Species Li            6.64453338        8.14035037        4.95122430
  |   10: Species Li            5.36402573        2.38396136        2.64908872
  |   11: Species Li            1.59468987        8.87760284        3.45475396
  |   12: Species Li            0.60862093        2.32765873        2.30860358
  |   13: Species Li            7.65192194       -0.15805078        1.54097523
  |   14: Species Li            8.35665061       10.11270217        7.92136644
  |   15: Species Li            2.34499174        8.74342802        7.70422593
  |   16: Species Li            5.73184030        5.96840546        7.67034036
  |   17: Species Li            8.44086598        5.38453626        4.24667469
  |   18: Species Li            0.08040838        9.00098709        2.20332820
  |   19: Species Li            1.48732856        2.08579275        9.56223540
  |   20: Species Li            4.69991692        7.30898905        4.77430015
  |   21: Species P             0.00816094       -0.01179108        4.91830671
  |   22: Species P             4.89298477        0.06045355       -0.13401921
  |   23: Species P             0.05100948        4.98938230        0.07787225
  |   24: Species P             5.05720516        4.87144736        4.81818552
  |   25: Species S             1.15061719        8.64238980        6.10077103
  |   26: Species S             8.59654991        1.10640784        6.05623566
  |   27: Species S             8.72702953        8.68279298        3.72175948
  |   28: Species S             1.26631706        1.22970584        3.87626796
  |   29: Species S             6.07720035        1.29282681        8.59471616
  |   30: Species S             6.01238461        8.73707633        1.06840560
  |   31: Species S             3.67627995        8.77630900        8.57101348
  |   32: Species S             3.69696165        1.29069638        0.97346149
  |   33: Species S             8.72347505        5.95820739        1.44450692
  |   34: Species S             1.06545118        6.31045651        8.80241728
  |   35: Species S             8.75372655        3.78116550        8.83853334
  |   36: Species S             1.42076586        3.87978130        1.16287484
  |   37: Species S             6.08183376        6.25065374        3.71869580
  |   38: Species S             6.32505001        3.79218907        6.01152540
  |   39: Species S             4.08581361        3.61184732        3.52680091
  |   40: Species S             3.62892564        5.76026583        6.04798834
  |   41: Species Cl            2.36682059        2.49367495        7.25406970
  |   42: Species Cl            7.31343336        7.53938380        7.48433146
  |   43: Species Cl            4.73670718       -0.23273362        4.89295284
  |   44: Species Cl            5.16152379        5.03058140       -0.25834276
  |   45: Species Cl           -0.04972863        0.26024035        0.16637994
  |   46: Species Cl            0.03004227        4.95707353        5.02330180
  |   47: Species Cl            7.59638730        2.35190796        2.47201849
  |   48: Species Cl            2.47160531        7.52488886        2.46208931

  Lattice parameters for 3D lattice (in Angstroms) :     9.898000    9.898000    9.898000
  Angle(s) between unit vectors (in degrees)      :    90.000000   90.000000   90.000000

  |

  | The smallest distance between any two atoms is         1.50482205 AA.
  |
  | The first atom of this pair is atom number                      8 .
  | The second atom of this pair is atom number                    20 .
  | Wigner-Seitz cell of the first atom image           0     0     0 .
  | (The Wigner-Seitz cell of the second atom is 0 0 0  by definition.)

  Symmetry information by spglib:
  | Precision set to  0.1E-04
  | Number of Operations  : 1
  | Space group           : 1
  | International         : P1
  | Schoenflies           : C1^1

  Quantities derived from the lattice vectors:
  | Reciprocal lattice vector 1:  0.634793  0.000000  0.000000
  | Reciprocal lattice vector 2:  0.000000  0.634793  0.000000
  | Reciprocal lattice vector 3:  0.000000  0.000000  0.634793
  | Unit cell volume                               :   0.969711E+03  A^3

  Range separation radius for Ewald summation (hartree_convergence_parameter):      3.90166475 bohr.

  Fractional coordinates:
                         L1                L2                L3
       atom_frac         0.32807841        0.07620389        0.68396764  Li
       atom_frac         0.40213118        0.00182926        0.26075800  Li
       atom_frac         0.70622946        0.33113523        0.04508099  Li
       atom_frac         0.66595955        0.68710768       -0.01487267  Li
       atom_frac         0.03873252        0.65187955        0.28984976  Li
       atom_frac         0.94927986        0.66098182        0.71306643  Li
       atom_frac         0.01394561        0.26988241        0.64198399  Li
       atom_frac         0.36389561        0.68460076        0.39341868  Li
       atom_frac         0.67130062        0.82242378        0.50022473  Li
       atom_frac         0.54193027        0.24085284        0.26763879  Li
       atom_frac         0.16111234        0.89690877        0.34903557  Li
       atom_frac         0.06148929        0.23516456        0.23323941  Li
       atom_frac         0.77307760       -0.01596795        0.15568552  Li
       atom_frac         0.84427670        1.02169149        0.80029972  Li
       atom_frac         0.23691572        0.88335302        0.77836190  Li
       atom_frac         0.57909077        0.60299107        0.77493843  Li
       atom_frac         0.85278503        0.54400246        0.42904373  Li
       atom_frac         0.00812370        0.90937435        0.22260338  Li
       atom_frac         0.15026557        0.21072871        0.96607755  Li
       atom_frac         0.47483502        0.73843092        0.48235000  Li
       atom_frac         0.00082450       -0.00119126        0.49689905  P
       atom_frac         0.49434076        0.00610765       -0.01354003  P
       atom_frac         0.00515351        0.50407986        0.00786747  P
       atom_frac         0.51093203        0.49216483        0.48678376  P
       atom_frac         0.11624745        0.87314508        0.61636403  S
       atom_frac         0.86851385        0.11178095        0.61186460  S
       atom_frac         0.88169628        0.87722703        0.37601127  S
       atom_frac         0.12793666        0.12423781        0.39162134  S
       atom_frac         0.61398267        0.13061496        0.86832859  S
       atom_frac         0.60743431        0.88271131        0.10794157  S
       atom_frac         0.37141645        0.88667501        0.86593389  S
       atom_frac         0.37350593        0.13039972        0.09834931  S
       atom_frac         0.88133716        0.60196075        0.14593928  S
       atom_frac         0.10764308        0.63754866        0.88931274  S
       atom_frac         0.88439349        0.38201309        0.89296156  S
       atom_frac         0.14354070        0.39197630        0.11748584  S
       atom_frac         0.61445079        0.63150676        0.37570175  S
       atom_frac         0.63902305        0.38312681        0.60734750  S
       atom_frac         0.41279185        0.36490679        0.35631451  S
       atom_frac         0.36663222        0.58196262        0.61103137  S
       atom_frac         0.23912110        0.25193726        0.73288239  Cl
       atom_frac         0.73887993        0.76170782        0.75614585  Cl
       atom_frac         0.47855196       -0.02351320        0.49433754  Cl
       atom_frac         0.52147140        0.50824222       -0.02610050  Cl
       atom_frac        -0.00502411        0.02629222        0.01680945  Cl
       atom_frac         0.00303519        0.50081568        0.50750676  Cl
       atom_frac         0.76746691        0.23761447        0.24974930  Cl
       atom_frac         0.24970755        0.76024339        0.24874615  Cl

  Number of empty states per atom not set in control.in - providing a guess from actual geometry.
  | Total number of empty states used during s.c.f. cycle:      114
  If you use a very high smearing, use empty_states (per atom!) in control.in to increase this value.

  Structure-dependent array size parameters: 
  | Maximum number of distinct radial functions  :       29
  | Maximum number of basis functions            :      724
  | Number of Kohn-Sham states (occupied + empty):      370
------------------------------------------------------------

------------------------------------------------------------
          Preparing all fixed parts of the calculation.
------------------------------------------------------------
  Determining machine precision:
    2.225073858507201E-308
  Setting up grids for atomic and cluster calculations.

  Creating wave function, potential, and density for free atoms.

  Species: Li

  List of occupied orbitals and eigenvalues:
    n    l              occ      energy [Ha]    energy [eV]
    1    0           2.0000        -1.876896       -51.0729
    2    0           1.0000        -0.084105        -2.2886


  Species: P

  List of occupied orbitals and eigenvalues:
    n    l              occ      energy [Ha]    energy [eV]
    1    0           2.0000       -76.351489     -2077.6297
    2    0           2.0000        -6.353717      -172.8934
    3    0           2.0000        -0.506059       -13.7706
    2    1           6.0000        -4.569386      -124.3393
    3    1           3.0000        -0.198107        -5.3908


  Species: S

  List of occupied orbitals and eigenvalues:
    n    l              occ      energy [Ha]    energy [eV]
    1    0           2.0000       -88.105825     -2397.4815
    2    0           2.0000        -7.730144      -210.3479
    3    0           2.0000        -0.627748       -17.0819
    2    1           6.0000        -5.747971      -156.4103
    3    1           4.0000        -0.255786        -6.9603


  Species: Cl

  List of occupied orbitals and eigenvalues:
    n    l              occ      energy [Ha]    energy [eV]
    1    0           2.0000      -100.709620     -2740.4482
    2    0           2.0000        -9.221874      -250.9399
    3    0           2.0000        -0.753366       -20.5001
    2    1           6.0000        -7.038743      -191.5339
    3    1           5.0000        -0.315359        -8.5813

  Creating fixed part of basis set: Ionic, confined, hydrogenic.
 
  Li                   hydrogenic:
 
  List of hydrogenic basis orbitals: 
    n    l      effective z      eigenvalue [eV]  inner max. [A]     outer max. [A]     outer radius [A]   
    2    1         1.600000        -8.6069           1.303334           1.303334           4.591005
    2    0         2.000000       -13.5631           0.203259           1.385485           4.591005
    3    2         2.600000        -9.9241           1.769240           1.769240           4.591005
 
 
  P                    ion:

  List of free ionic orbitals and eigenvalues:
    n    l      energy [Ha]    energy [eV]
    1    0       -77.297133     -2103.3620
    2    0        -7.273914      -197.9333
    3    0        -1.267536       -34.4914
    2    1        -5.491316      -149.4263
    3    1        -0.913470       -24.8568


  List of ionic basis orbitals and eigenvalues:
    n    l      energy [Ha]    energy [eV]    outer radius [A]
    3    2        -0.457308       -12.4440       4.554583
    3    1        -0.913443       -24.8560       4.337222
    3    0        -1.267519       -34.4910       3.885335

 
  S                    ion:

  List of free ionic orbitals and eigenvalues:
    n    l      energy [Ha]    energy [eV]
    1    0       -89.127201     -2425.2745
    2    0        -8.724378      -237.4024
    3    0        -1.464668       -39.8556
    2    1        -6.744348      -183.5230
    3    1        -1.048520       -28.5317


  List of ionic basis orbitals and eigenvalues:
    n    l      energy [Ha]    energy [eV]    outer radius [A]
    3    2        -0.496135       -13.5005       4.539062
    3    0        -1.464653       -39.8552       3.642502

 
  S                    hydrogenic:
 
  List of hydrogenic basis orbitals: 
    n    l      effective z      eigenvalue [eV]  inner max. [A]     outer max. [A]     outer radius [A]   
    2    1         1.800000       -10.9749           1.168531           1.168531           4.594893
 
 
  Cl                   ion:

  List of free ionic orbitals and eigenvalues:
    n    l      energy [Ha]    energy [eV]
    1    0      -101.807232     -2770.3157
    2    0       -10.290876      -280.0290
    3    0        -1.664625       -45.2967
    2    1        -8.110237      -220.6908
    3    1        -1.183915       -32.2160


  List of ionic basis orbitals and eigenvalues:
    n    l      energy [Ha]    energy [eV]    outer radius [A]
    3    2        -0.529186       -14.3999       4.541334
    3    0        -1.664610       -45.2963       3.428237

 
  Cl                   hydrogenic:
 
  List of hydrogenic basis orbitals: 
    n    l      effective z      eigenvalue [eV]  inner max. [A]     outer max. [A]     outer radius [A]   
    2    1         1.900000       -12.2492           1.113321           1.113321           4.597192
 

  Adding cutoff potential to free-atom effective potential.
  Creating atomic-like basis functions for current effective potential.

  Species Li                  :

  List of atomic basis orbitals and eigenvalues:
    n    l      energy [Ha]    energy [eV]    outer radius [A]
    1    0        -1.876896       -51.0729       4.062706
    2    0        -0.084105        -2.2886       4.591005


  Species P                   :

  List of atomic basis orbitals and eigenvalues:
    n    l      energy [Ha]    energy [eV]    outer radius [A]
    1    0       -76.351489     -2077.6297       0.736837
    2    0        -6.353717      -172.8934       2.532824
    3    0        -0.506059       -13.7706       4.499242
    2    1        -4.569386      -124.3393       2.862183
    3    1        -0.198107        -5.3908       4.554583


  Species S                   :

  List of atomic basis orbitals and eigenvalues:
    n    l      energy [Ha]    energy [eV]    outer radius [A]
    1    0       -88.105825     -2397.4815       0.682391
    2    0        -7.730144      -210.3479       2.317169
    3    0        -0.627748       -17.0819       4.483910
    2    1        -5.747971      -156.4103       2.555240
    3    1        -0.255786        -6.9603       4.539062


  Species Cl                  :

  List of atomic basis orbitals and eigenvalues:
    n    l      energy [Ha]    energy [eV]    outer radius [A]
    1    0      -100.709620     -2740.4482       0.642251
    2    0        -9.221874      -250.9399       2.128190
    3    0        -0.753366       -20.5001       4.431645
    2    1        -7.038743      -191.5339       2.346844
    3    1        -0.315359        -8.5813       4.541334

  Assembling full basis from fixed parts.
  | Species Li :   atomic orbital   1 s accepted.
  | Species Li :   atomic orbital   2 s accepted.
  | Species Li :    hydro orbital   2 s accepted.
  | Species Li :    hydro orbital   2 p accepted.
  | Species Li :    hydro orbital   3 d accepted.
  | Species P :   atomic orbital   1 s accepted.
  | Species P :   atomic orbital   2 s accepted.
  | Species P :    ionic orbital   3 s accepted.
  | Species P :   atomic orbital   3 s accepted.
  | Species P :   atomic orbital   2 p accepted.
  | Species P :    ionic orbital   3 p accepted.
  | Species P :   atomic orbital   3 p accepted.
  | Species P :    ionic orbital   3 d accepted.
  | Species S :   atomic orbital   1 s accepted.
  | Species S :   atomic orbital   2 s accepted.
  | Species S :    ionic orbital   3 s accepted.
  | Species S :   atomic orbital   3 s accepted.
  | Species S :   atomic orbital   2 p accepted.
  | Species S :   atomic orbital   3 p accepted.
  | Species S :    hydro orbital   2 p accepted.
  | Species S :    ionic orbital   3 d accepted.
  | Species Cl :   atomic orbital   1 s accepted.
  | Species Cl :   atomic orbital   2 s accepted.
  | Species Cl :    ionic orbital   3 s accepted.
  | Species Cl :   atomic orbital   3 s accepted.
  | Species Cl :   atomic orbital   2 p accepted.
  | Species Cl :   atomic orbital   3 p accepted.
  | Species Cl :    hydro orbital   2 p accepted.
  | Species Cl :    ionic orbital   3 d accepted.
 
  Basis size parameters after reduction:
  | Total number of radial functions:       29
  | Total number of basis functions :      724
 
  Per-task memory consumption for arrays in subroutine allocate_ext:
  |           7.605768MB.
  Testing on-site integration grid accuracy.
  |  Species  Function  <phi|h_atom|phi> (log., in eV)  <phi|h_atom|phi> (rad., in eV)
           1        1                -51.0729407432                -51.0729328795
           1        2                 -2.3261068990                 -2.3227046518
           1        3                 17.1966930198                 17.2358027191 ***
           1        4                  0.3867256281                  0.3982841734
           1        5                  6.2743141416                  6.2817896417
           2        6              -2077.6297159538              -2077.6288551184
           2        7               -172.8934457906               -172.8934403880
           2        8                -13.4653967551                -13.4655200798
           2        9                  6.4162845277                  6.4013396720
           2       10               -124.3393201040               -124.3393200061
           2       11                 -4.7560266034                 -4.7560495157
           2       12                  6.5873401476                  6.4958904717 ***
           2       13                  5.2911719464                  5.2826493609
           3       14              -2397.4814915323              -2397.4804563634
           3       15               -210.3479335736               -210.3479265952
           3       16                -16.8079362322                -16.8079092816
           3       17                  7.5772439785                  7.5675998324
           3       18               -156.4102581151               -156.4102580951
           3       19                 -6.9617737483                 -6.9640288036
           3       20                  7.5696988470                  7.5151244831 ***
           3       21                  6.0973034823                  6.0928113248
           4       22              -2740.4481953768              -2740.4469735573
           4       23               -250.9399497423               -250.9399403187
           4       24                -20.2462734235                -20.2462512680
           4       25                  8.9460051782                  8.9510436705
           4       26               -191.5339459398               -191.5339455009
           4       27                 -8.5819075957                 -8.5827488985
           4       28                  8.1339828089                  8.0979459360 ***
           4       29                  7.0302175114                  7.0277664253
 * Note: Onsite integrals marked "***" above are less accurate than
 * onsite_accuracy_threshold =    0.03000 eV. Usually, this is harmless.
 * When in doubt, tighten the "radial" and/or "radial_multiplier" flags to check.

  Preparing densities etc. for the partition functions (integrals / Hartree potential).

  Preparations completed.
  max(cpu_time)          :      0.411 s.
  Wall clock time (cpu1) :      0.427 s.
------------------------------------------------------------

------------------------------------------------------------
          Begin self-consistency loop: Initialization.

          Date     :  20220723, Time     :  171019.682
------------------------------------------------------------

  Initializing index lists of integration centers etc. from given atomic structure:
  Mapping all atomic coordinates to central unit cell.

  Initializing the k-points
          Using symmetry for reducing the k-points
  | k-points reduced from:       27 to       14
  | Number of k-points                             :        14
  The eigenvectors in the calculations are COMPLEX.
  | K-points in task   0:         0
  | K-points in task   1:         1
  | K-points in task   2:         1
  | K-points in task   3:         1
  | K-points in task   4:         1
  | K-points in task   5:         1
  | K-points in task   6:         1
  | K-points in task   7:         1
  | K-points in task   8:         1
  | K-points in task   9:         1
  | K-points in task  10:         1
  | K-points in task  11:         1
  | K-points in task  12:         1
  | K-points in task  13:         1
  | K-points in task  14:         1
  | K-points in task  15:         0
  | K-points in task  16:         0
  | K-points in task  17:         0
  | K-points in task  18:         0
  | K-points in task  19:         0
  | Number of basis functions in the Hamiltonian integrals :      3916
  | Number of basis functions in a single unit cell        :       724
  | Number of centers in hartree potential         :      1736
  | Number of centers in hartree multipole         :       925
  | Number of centers in electron density summation:       721
  | Number of centers in basis integrals           :       759
  | Number of centers in integrals                 :       340
  | Number of centers in hamiltonian               :       726
  | Consuming          6 KiB for k_phase.
  | Number of super-cells (origin) [n_cells]                     :         125
  | Number of super-cells (after PM_index) [n_cells]             :          28
  | Number of super-cells in hamiltonian [n_cells_in_hamiltonian]:          28
  | Size of matrix packed + index [n_hamiltonian_matrix_size] :      741546
  Partitioning the integration grid into batches with parallel hashing+maxmin method.
  | Number of batches:     4360
  | Maximal batch size:     170
  | Minimal batch size:      56
  | Average batch size:      82.411
  | Standard deviation of batch sizes:      15.109

  Integration load balanced across    20 MPI tasks.
  Work distribution over tasks is as follows:
  Task     0 has      17935 integration points.
  Task     1 has      17928 integration points.
  Task     2 has      17935 integration points.
  Task     3 has      17944 integration points.
  Task     4 has      17972 integration points.
  Task     5 has      17977 integration points.
  Task     6 has      17975 integration points.
  Task     7 has      17991 integration points.
  Task     8 has      17961 integration points.
  Task     9 has      17976 integration points.
  Task    10 has      17962 integration points.
  Task    11 has      17982 integration points.
  Task    12 has      17989 integration points.
  Task    13 has      17956 integration points.
  Task    14 has      17956 integration points.
  Task    15 has      17969 integration points.
  Task    16 has      17969 integration points.
  Task    17 has      18005 integration points.
  Task    18 has      17948 integration points.
  Task    19 has      17982 integration points.
  Initializing partition tables, free-atom densities, potentials, etc. across the integration grid (initialize_grid_storage).
  | initialize_grid_storage: Actual outermost partition radius vs. multipole_radius_free
  | (-- VB: in principle, multipole_radius_free should be larger, hence this output)
  | Species        1: Confinement radius =              4.999999999999999 AA, multipole_radius_free =              5.001180127821857 AA.
  | Species        1: outer_partition_radius set to              5.001180127821857 AA .
  | Species        2: Confinement radius =              4.999999999999999 AA, multipole_radius_free =              5.022530438398565 AA.
  | Species        2: outer_partition_radius set to              5.022530438398565 AA .
  | Species        3: Confinement radius =              4.999999999999999 AA, multipole_radius_free =              5.005414751018925 AA.
  | Species        3: outer_partition_radius set to              5.005414751018925 AA .
  | Species        4: Confinement radius =              4.999999999999999 AA, multipole_radius_free =              5.007919576009533 AA.
  | Species        4: outer_partition_radius set to              5.007919576009533 AA .
  | Original list of interatomic distances with         759 x        759 entries is created.
  | Net number of integration points:   359312
  | of which are non-zero points    :   323634
  | Numerical average free-atom electrostatic potential    :     -9.55337728 eV
  Renormalizing the initial density to the exact electron count on the 3D integration grid.
  | Initial density: Formal number of electrons (from input files) :     512.0000000000
  | Integrated number of electrons on 3D grid     :     511.9991061087
  | Charge integration error                      :      -0.0008938913
  | Normalization factor for density and gradient :       1.0000017459
  Obtaining max. number of non-zero basis functions in each batch (get_n_compute_maxes).
  | Maximal number of non-zero basis functions:      432 in task     0
  | Maximal number of non-zero basis functions:      421 in task     1
  | Maximal number of non-zero basis functions:      414 in task     2
  | Maximal number of non-zero basis functions:      425 in task     3
  | Maximal number of non-zero basis functions:      427 in task     4
  | Maximal number of non-zero basis functions:      426 in task     5
  | Maximal number of non-zero basis functions:      437 in task     6
  | Maximal number of non-zero basis functions:      428 in task     7
  | Maximal number of non-zero basis functions:      456 in task     8
  | Maximal number of non-zero basis functions:      438 in task     9
  | Maximal number of non-zero basis functions:      430 in task    10
  | Maximal number of non-zero basis functions:      449 in task    11
  | Maximal number of non-zero basis functions:      443 in task    12
  | Maximal number of non-zero basis functions:      419 in task    13
  | Maximal number of non-zero basis functions:      447 in task    14
  | Maximal number of non-zero basis functions:      431 in task    15
  | Maximal number of non-zero basis functions:      417 in task    16
  | Maximal number of non-zero basis functions:      433 in task    17
  | Maximal number of non-zero basis functions:      427 in task    18
  | Maximal number of non-zero basis functions:      434 in task    19
  Allocating        0.000 MB for KS_eigenvector_complex
  Integrating Hamiltonian matrix: batch-based integration.
  Time summed over all CPUs for integration: real work       12.988 s, elapsed       13.096 s
  Integrating overlap matrix.
  Time summed over all CPUs for integration: real work        8.792 s, elapsed        8.887 s
  Decreasing sparse matrix size:
   Tolerance:  9.999999824516700E-014
   Hamiltonian matrix
  | Array has   657925 nonzero elements out of   741546 elements
  | Sparsity factor is 0.113
   Overlap matrix
  | Array has   617219 nonzero elements out of   741546 elements
  | Sparsity factor is 0.168
  New size of hamiltonian matrix:      657928

  Updating Kohn-Sham eigenvalues and eigenvectors using ELSI and the ELPA eigensolver.

  Obtaining occupation numbers and chemical potential using ELSI.
  | Chemical potential (Fermi level):    -7.38655473eV
  Writing Kohn-Sham eigenvalues.
  K-point:       1 at    0.000000    0.000000    0.000000 (in units of recip. lattice)

  State    Occupation    Eigenvalue [Ha]    Eigenvalue [eV]
      1       2.00000        -100.762839        -2741.89636
      2       2.00000        -100.754393        -2741.66654
      3       2.00000        -100.737383        -2741.20365
      4       2.00000        -100.733992        -2741.11139
      5       2.00000        -100.730016        -2741.00319
      6       2.00000        -100.729768        -2740.99646
      7       2.00000        -100.729760        -2740.99624
      8       2.00000        -100.727941        -2740.94674
      9       2.00000         -88.170487        -2399.24102
     10       2.00000         -88.147662        -2398.61992
     11       2.00000         -88.144378        -2398.53056
     12       2.00000         -88.143834        -2398.51577
     13       2.00000         -88.142672        -2398.48414
     14       2.00000         -88.142437        -2398.47775
     15       2.00000         -88.138310        -2398.36544
     16       2.00000         -88.136986        -2398.32940
     17       2.00000         -88.136952        -2398.32850
     18       2.00000         -88.135956        -2398.30138
     19       2.00000         -88.132181        -2398.19868
     20       2.00000         -88.129760        -2398.13279
     21       2.00000         -88.124086        -2397.97838
     22       2.00000         -88.123717        -2397.96835
     23       2.00000         -88.120034        -2397.86814
     24       2.00000         -88.118039        -2397.81383
     25       2.00000         -76.386225        -2078.57495
     26       2.00000         -76.384921        -2078.53945
     27       2.00000         -76.378666        -2078.36925
     28       2.00000         -76.378014        -2078.35151
     29       2.00000          -9.278086         -252.46955
     30       2.00000          -9.268912         -252.21993
     31       2.00000          -9.251381         -251.74288
     32       2.00000          -9.248166         -251.65540
     33       2.00000          -9.243836         -251.53758
     34       2.00000          -9.243730         -251.53468
     35       2.00000          -9.243479         -251.52787
     36       2.00000          -9.241795         -251.48204
     37       2.00000          -7.798605         -212.21085
     38       2.00000          -7.775991         -211.59548
     39       2.00000          -7.772478         -211.49989
     40       2.00000          -7.771601         -211.47603
     41       2.00000          -7.770280         -211.44007
     42       2.00000          -7.770258         -211.43947
     43       2.00000          -7.765823         -211.31879
     44       2.00000          -7.764508         -211.28300
     45       2.00000          -7.764294         -211.27718
     46       2.00000          -7.763031         -211.24281
     47       2.00000          -7.759421         -211.14458
     48       2.00000          -7.756805         -211.07341
     49       2.00000          -7.750710         -210.90755
     50       2.00000          -7.750407         -210.89931
     51       2.00000          -7.746399         -210.79023
     52       2.00000          -7.744210         -210.73067
     53       2.00000          -7.095417         -193.07611
     54       2.00000          -7.094485         -193.05076
     55       2.00000          -7.093625         -193.02736
     56       2.00000          -7.087232         -192.85339
     57       2.00000          -7.084572         -192.78102
     58       2.00000          -7.084440         -192.77741
     59       2.00000          -7.068888         -192.35422
     60       2.00000          -7.067658         -192.32076
     61       2.00000          -7.067484         -192.31601
     62       2.00000          -7.065327         -192.25734
     63       2.00000          -7.064542         -192.23598
     64       2.00000          -7.064480         -192.23429
     65       2.00000          -7.060958         -192.13845
     66       2.00000          -7.060845         -192.13536
     67       2.00000          -7.060751         -192.13281
     68       2.00000          -7.060457         -192.12482
     69       2.00000          -7.060331         -192.12139
     70       2.00000          -7.060066         -192.11417
     71       2.00000          -7.059979         -192.11180
     72       2.00000          -7.059945         -192.11087
     73       2.00000          -7.059710         -192.10449
     74       2.00000          -7.059008         -192.08539
     75       2.00000          -7.058481         -192.07105
     76       2.00000          -7.057888         -192.05490
     77       2.00000          -6.395076         -174.01887
     78       2.00000          -6.393556         -173.97751
     79       2.00000          -6.386653         -173.78967
     80       2.00000          -6.385917         -173.76963
     81       2.00000          -5.819972         -158.36950
     82       2.00000          -5.814152         -158.21112
     83       2.00000          -5.813536         -158.19436
     84       2.00000          -5.794384         -157.67320
     85       2.00000          -5.793528         -157.64991
     86       2.00000          -5.792023         -157.60896
     87       2.00000          -5.790893         -157.57822
     88       2.00000          -5.790242         -157.56049
     89       2.00000          -5.790050         -157.55529
     90       2.00000          -5.789313         -157.53523
     91       2.00000          -5.789144         -157.53063
     92       2.00000          -5.788547         -157.51438
     93       2.00000          -5.788443         -157.51154
     94       2.00000          -5.787898         -157.49673
     95       2.00000          -5.787686         -157.49096
     96       2.00000          -5.786944         -157.47076
     97       2.00000          -5.786877         -157.46893
     98       2.00000          -5.786838         -157.46788
     99       2.00000          -5.785466         -157.43054
    100       2.00000          -5.782922         -157.36130
    101       2.00000          -5.782729         -157.35606
    102       2.00000          -5.782400         -157.34712
    103       2.00000          -5.782301         -157.34440
    104       2.00000          -5.782065         -157.33798
    105       2.00000          -5.782020         -157.33678
    106       2.00000          -5.781296         -157.31707
    107       2.00000          -5.781084         -157.31131
    108       2.00000          -5.780837         -157.30458
    109       2.00000          -5.780434         -157.29362
    110       2.00000          -5.779087         -157.25697
    111       2.00000          -5.777963         -157.22637
    112       2.00000          -5.776674         -157.19129
    113       2.00000          -5.776016         -157.17339
    114       2.00000          -5.775200         -157.15119
    115       2.00000          -5.774591         -157.13462
    116       2.00000          -5.773170         -157.09596
    117       2.00000          -5.769653         -157.00026
    118       2.00000          -5.769161         -156.98686
    119       2.00000          -5.768000         -156.95526
    120       2.00000          -5.767780         -156.94927
    121       2.00000          -5.767165         -156.93256
    122       2.00000          -5.766952         -156.92676
    123       2.00000          -5.765200         -156.87908
    124       2.00000          -5.763487         -156.83245
    125       2.00000          -5.763302         -156.82742
    126       2.00000          -5.763178         -156.82405
    127       2.00000          -5.761240         -156.77133
    128       2.00000          -5.761047         -156.76606
    129       2.00000          -4.611005         -125.47184
    130       2.00000          -4.609987         -125.44412
    131       2.00000          -4.609721         -125.43688
    132       2.00000          -4.609453         -125.42958
    133       2.00000          -4.608513         -125.40401
    134       2.00000          -4.608246         -125.39675
    135       2.00000          -4.602050         -125.22814
    136       2.00000          -4.601948         -125.22538
    137       2.00000          -4.601687         -125.21829
    138       2.00000          -4.601359         -125.20935
    139       2.00000          -4.601230         -125.20583
    140       2.00000          -4.600911         -125.19716
    141       2.00000          -1.995613          -54.30339
    142       2.00000          -1.954245          -53.17772
    143       2.00000          -1.951199          -53.09483
    144       2.00000          -1.930742          -52.53816
    145       2.00000          -1.922514          -52.31426
    146       2.00000          -1.909006          -51.94669
    147       2.00000          -1.900586          -51.71758
    148       2.00000          -1.899752          -51.69487
    149       2.00000          -1.899054          -51.67589
    150       2.00000          -1.897915          -51.64489
    151       2.00000          -1.897505          -51.63374
    152       2.00000          -1.896737          -51.61284
    153       2.00000          -1.895028          -51.56634
    154       2.00000          -1.893232          -51.51746
    155       2.00000          -1.891695          -51.47564
    156       2.00000          -1.888794          -51.39671
    157       2.00000          -1.887587          -51.36385
    158       2.00000          -1.886576          -51.33634
    159       2.00000          -1.885634          -51.31072
    160       2.00000          -1.884319          -51.27493
    161       2.00000          -0.844167          -22.97094
    162       2.00000          -0.823637          -22.41230
    163       2.00000          -0.821813          -22.36266
    164       2.00000          -0.819361          -22.29595
    165       2.00000          -0.809268          -22.02129
    166       2.00000          -0.804509          -21.89180
    167       2.00000          -0.803795          -21.87238
    168       2.00000          -0.800514          -21.78311
    169       2.00000          -0.798981          -21.74138
    170       2.00000          -0.796570          -21.67577
    171       2.00000          -0.794552          -21.62087
    172       2.00000          -0.794317          -21.61446
    173       2.00000          -0.737935          -20.08023
    174       2.00000          -0.734171          -19.97782
    175       2.00000          -0.733343          -19.95529
    176       2.00000          -0.728309          -19.81829
    177       2.00000          -0.724973          -19.72753
    178       2.00000          -0.722456          -19.65903
    179       2.00000          -0.717462          -19.52314
    180       2.00000          -0.712889          -19.39869
    181       2.00000          -0.706193          -19.21649
    182       2.00000          -0.702626          -19.11942
    183       2.00000          -0.699309          -19.02915
    184       2.00000          -0.697844          -18.98931
    185       2.00000          -0.564586          -15.36317
    186       2.00000          -0.552143          -15.02457
    187       2.00000          -0.539262          -14.67406
    188       2.00000          -0.532098          -14.47913
    189       2.00000          -0.458085          -12.46511
    190       2.00000          -0.456032          -12.40925
    191       2.00000          -0.451221          -12.27835
    192       2.00000          -0.446508          -12.15009
    193       2.00000          -0.442201          -12.03291
    194       2.00000          -0.437864          -11.91490
    195       2.00000          -0.432699          -11.77435
    196       2.00000          -0.432441          -11.76732
    197       2.00000          -0.429196          -11.67902
    198       2.00000          -0.425752          -11.58529
    199       2.00000          -0.421656          -11.47383
    200       2.00000          -0.419330          -11.41056
    201       2.00000          -0.414646          -11.28309
    202       2.00000          -0.410856          -11.17995
    203       2.00000          -0.407661          -11.09301
    204       2.00000          -0.403990          -10.99312
    205       2.00000          -0.397995          -10.83000
    206       2.00000          -0.393827          -10.71657
    207       2.00000          -0.392298          -10.67498
    208       2.00000          -0.391403          -10.65062
    209       2.00000          -0.388895          -10.58238
    210       2.00000          -0.386442          -10.51561
    211       2.00000          -0.384043          -10.45035
    212       2.00000          -0.382838          -10.41754
    213       2.00000          -0.380676          -10.35872
    214       2.00000          -0.379130          -10.31664
    215       2.00000          -0.377294          -10.26670
    216       2.00000          -0.375726          -10.22403
    217       2.00000          -0.375181          -10.20920
    218       2.00000          -0.373680          -10.16835
    219       2.00000          -0.372493          -10.13605
    220       2.00000          -0.371194          -10.10069
    221       2.00000          -0.370003          -10.06829
    222       2.00000          -0.368757          -10.03438
    223       2.00000          -0.364897           -9.92936
    224       2.00000          -0.363795           -9.89938
    225       2.00000          -0.361637           -9.84064
    226       2.00000          -0.360520           -9.81025
    227       2.00000          -0.359780           -9.79010
    228       2.00000          -0.355970           -9.68645
    229       2.00000          -0.353735           -9.62562
    230       2.00000          -0.351761           -9.57190
    231       2.00000          -0.347207           -9.44798
    232       2.00000          -0.344947           -9.38647
    233       2.00000          -0.343078           -9.33562
    234       2.00000          -0.339461           -9.23719
    235       2.00000          -0.338931           -9.22279
    236       2.00000          -0.336623           -9.15999
    237       2.00000          -0.334965           -9.11486
    238       2.00000          -0.331720           -9.02657
    239       2.00000          -0.331455           -9.01934
    240       2.00000          -0.328662           -8.94335
    241       2.00000          -0.326284           -8.87864
    242       2.00000          -0.323414           -8.80053
    243       2.00000          -0.321579           -8.75061
    244       2.00000          -0.316554           -8.61389
    245       2.00000          -0.314720           -8.56396
    246       2.00000          -0.310558           -8.45073
    247       2.00000          -0.308041           -8.38222
    248       2.00000          -0.304946           -8.29801
    249       2.00000          -0.300891           -8.18767
    250       2.00000          -0.298074           -8.11100
    251       2.00000          -0.292741           -7.96588
    252       2.00000          -0.289740           -7.88424
    253       2.00000          -0.287127           -7.81312
    254       2.00000          -0.279394           -7.60270
    255       2.00000          -0.278555           -7.57987
    256       2.00000          -0.273324           -7.43752
    257       0.00000          -0.187071           -5.09046
    258       0.00000          -0.141919           -3.86182
    259       0.00000          -0.134981           -3.67302
    260       0.00000          -0.131062           -3.56637
    261       0.00000          -0.127434           -3.46766
    262       0.00000          -0.124233           -3.38054
    263       0.00000          -0.121109           -3.29554
    264       0.00000          -0.119385           -3.24864
    265       0.00000          -0.117785           -3.20508
    266       0.00000          -0.115511           -3.14323
    267       0.00000          -0.109298           -2.97416
    268       0.00000          -0.096374           -2.62248
    269       0.00000          -0.092167           -2.50798
    270       0.00000          -0.086397           -2.35099
    271       0.00000          -0.083349           -2.26803
    272       0.00000          -0.080501           -2.19054
    273       0.00000          -0.078648           -2.14011
    274       0.00000          -0.076400           -2.07894
    275       0.00000          -0.072966           -1.98551
    276       0.00000          -0.071372           -1.94213
    277       0.00000          -0.070507           -1.91860
    278       0.00000          -0.064795           -1.76317
    279       0.00000          -0.059257           -1.61247
    280       0.00000          -0.058882           -1.60227
    281       0.00000          -0.056330           -1.53282
    282       0.00000          -0.051458           -1.40025
    283       0.00000          -0.047789           -1.30039
    284       0.00000          -0.045978           -1.25113
    285       0.00000          -0.041938           -1.14119
    286       0.00000          -0.040680           -1.10697
    287       0.00000          -0.032999           -0.89796
    288       0.00000          -0.028576           -0.77760
[...]
    308       0.00000           0.036190            0.98478
    309       0.00000           0.039896            1.08564
    310       0.00000           0.043660            1.18804
    311       0.00000           0.043855            1.19335
    312       0.00000           0.046390            1.26235
    313       0.00000           0.047395            1.28967
    314       0.00000           0.049278            1.34092
    315       0.00000           0.052171            1.41965
    316       0.00000           0.052414            1.42627
    317       0.00000           0.056262            1.53098
    318       0.00000           0.058954            1.60422
    319       0.00000           0.061307            1.66824
    320       0.00000           0.062431            1.69884
    321       0.00000           0.065051            1.77012
    322       0.00000           0.070394            1.91553
    323       0.00000           0.070793            1.92637
    324       0.00000           0.073878            2.01032
    325       0.00000           0.075975            2.06738
    326       0.00000           0.082043            2.23251
    327       0.00000           0.083323            2.26733
    328       0.00000           0.085594            2.32914
    329       0.00000           0.086953            2.36612
    330       0.00000           0.089147            2.42581
    331       0.00000           0.090343            2.45836
    332       0.00000           0.092804            2.52532
    333       0.00000           0.097339            2.64872
    334       0.00000           0.098318            2.67537
    335       0.00000           0.100209            2.72683
    336       0.00000           0.102798            2.79726
    337       0.00000           0.105412            2.86840
    338       0.00000           0.108470            2.95161
    339       0.00000           0.112043            3.04885
    340       0.00000           0.113607            3.09140
    341       0.00000           0.116855            3.17979
    342       0.00000           0.120614            3.28208
    343       0.00000           0.121520            3.30672
    344       0.00000           0.123966            3.37330
    345       0.00000           0.129176            3.51507
    346       0.00000           0.130985            3.56428
    347       0.00000           0.136147            3.70474
    348       0.00000           0.139818            3.80463
    349       0.00000           0.141234            3.84316
    350       0.00000           0.141773            3.85785
    351       0.00000           0.144534            3.93297
    352       0.00000           0.149919            4.07950
    353       0.00000           0.154044            4.19174
    354       0.00000           0.157296            4.28024
    355       0.00000           0.161113            4.38410
    356       0.00000           0.162803            4.43010
    357       0.00000           0.165453            4.50219
    358       0.00000           0.167645            4.56185
    359       0.00000           0.171406            4.66421
    360       0.00000           0.174824            4.75720
    361       0.00000           0.179281            4.87848
    362       0.00000           0.180738            4.91813
    363       0.00000           0.184037            5.00790
    364       0.00000           0.187814            5.11067
    365       0.00000           0.190123            5.17351
    366       0.00000           0.192229            5.23081
    367       0.00000           0.194900            5.30350
    368       0.00000           0.197098            5.36332
    369       0.00000           0.200697            5.46124
    370       0.00000           0.202206            5.50229

  What follows are estimated values for band gap, HOMO, LUMO, etc.
  | They are estimated on a discrete k-point grid and not necessarily exact.
  | For converged numbers, create a DOS and/or band structure plot on a denser k-grid.

  Highest occupied state (VBM) at     -6.10097644 eV (relative to internal zero)
  | Occupation number:      2.00000000
  | K-point:      12 at    0.333333    0.666667    0.666667 (in units of recip. lattice)

  Lowest unoccupied state (CBM) at    -5.16288002 eV (relative to internal zero)
  | Occupation number:      0.00000000
  | K-point:       1 at    0.000000    0.000000    0.000000 (in units of recip. lattice)

  ESTIMATED overall HOMO-LUMO gap:      0.93809642 eV between HOMO at k-point 12 and LUMO at k-point 1
  | This appears to be an indirect band gap.
  | Smallest direct gap :      0.94407806 eV for k_point 1 at    0.000000    0.000000    0.000000 (in units of recip. lattice)
  The gap value is above 0.2 eV. Unless you are using a very sparse k-point grid,
  this system is most likely an insulator or a semiconductor.

  Self-consistency cycle converged.

  End self-consistency iteration #    21       :  max(cpu_time)    wall_clock(cpu1)
  | Time for this iteration                    :       14.417 s          14.420 s
  | Charge density & force component update    :        9.515 s           9.515 s
  | Density mixing                             :        0.007 s           0.007 s
  | Hartree multipole update                   :        0.005 s           0.004 s
  | Hartree multipole summation                :        3.838 s           3.838 s
  | Integration                                :        0.680 s           0.680 s
  | Solution of K.-S. eqns.                    :        0.370 s           0.370 s
  | Total energy evaluation                    :        0.002 s           0.002 s

  Partial memory accounting:
  | Current value for overall tracked memory usage on task 0  :          13.160 MB
  | Peak value for overall tracked memory usage on task 0     :          26.404 MB after allocating wave_pulay
  | Largest tracked array allocation on task 0 so far         :           8.387 MB  when allocating kdm_complex
  Note:  These values currently only include a subset of arrays which are explicitly tracked.
  The "true" memory usage will be greater.
------------------------------------------------------------
  |------------------------------------------
  | Final ELSI Output
  |------------------------------------------
  | Number of basis functions :          724
  | Number of electrons       :        512.0
  | Number of states          :          370
  | Solver                    :         ELPA
  | Parallel mode             :  SINGLE_PROC
  | Matrix format             :  BLACS_DENSE
  |------------------------------------------
  | ELSI Project (c)  elsi-interchange.org
  |------------------------------------------
  Removing unitary transformations (pure translations, rotations) from forces on atoms.
  Atomic forces before filtering:
  | Net force on center of mass :   0.643411E-02  0.288460E-02  0.420569E-02 eV/A
  Atomic forces after filtering:
  | Net force on center of mass :   0.124884E-14  0.124884E-14 -0.249769E-14 eV/A

  Energy and forces in a compact form:
  | Total energy uncorrected      :         -0.314728070294447E+06 eV
  | Total energy corrected        :         -0.314728070294447E+06 eV  <-- do not rely on this value for anything but (periodic) metals
  | Electronic free energy        :         -0.314728070294447E+06 eV
  Total atomic forces (unitary forces cleaned) [eV/Ang]:
  |   1          0.123304860002928E+01         -0.709037377598592E+00         -0.499329831108097E+00
  |   2          0.453181360835710E+00         -0.121060796181928E+01          0.121587698814375E+01
  |   3         -0.258488531949170E+00          0.224185231985935E+00         -0.492244573922760E+00
  |   4          0.346949193925009E+00         -0.288439395059868E+00          0.553457299435907E+00
  |   5          0.785742950648622E+00         -0.649140797042600E+00          0.577610339878227E+00
  |   6          0.192710015203337E+00         -0.381034378081371E+00          0.611978536601577E-01
  |   7          0.955743886964623E+00          0.134719409469145E+01          0.455209115581793E+00
  |   8         -0.190300609854590E+01         -0.241703942937030E+01         -0.117154919108974E+01
  |   9          0.980752486484269E+00          0.822135378952327E+00          0.634674351741469E+00
  |  10          0.143384409718909E+01         -0.116041276607514E+01         -0.939873784681458E+00
  |  11          0.419534789142726E+00          0.139632586218314E+01          0.258084272793399E+01
  |  12         -0.189194947337008E+01          0.442226640610594E+00         -0.941406211117546E+00
  |  13          0.192449664229112E+01          0.210850578780284E+01          0.419004568685471E+00
  |  14         -0.525524376081434E+00         -0.768296063831800E+00          0.174154380122038E+01
  |  15         -0.857801993284398E+01         -0.107072969179987E+01         -0.391503404876111E+01
  |  16         -0.657821728180296E+00         -0.109488558487963E+01         -0.672424875101537E+00
  |  17         -0.592780098953014E+01          0.748616509165294E+00         -0.273804480193492E+01
  |  18          0.744053235871419E+00          0.593856495802589E+00         -0.336045753563427E+01
  |  19          0.238950259087916E+00          0.851488062940371E-01         -0.607586789237682E+00
  |  20          0.876295228946943E+00          0.255857939482283E+01          0.340775334926092E+01
  |  21         -0.104454878992267E+01          0.148863269278288E+01          0.244764406381129E+01
  |  22          0.803941286315717E+00          0.741778749273045E+00         -0.180762782828714E+01
  |  23          0.370113447799410E+00         -0.320694333178159E+00         -0.758263697841853E+00
  |  24          0.178886036557470E+00         -0.383170619331851E+01          0.198095413981929E+01
  |  25         -0.116591526833916E+01         -0.464458621198196E+00         -0.229773928498633E+01
  |  26         -0.408689866397809E+00         -0.258109242327468E+00         -0.196244644625177E+01
  |  27         -0.101964017564211E+01         -0.117010973132815E+01          0.815316181083347E+00
  |  28          0.101698552072665E+01         -0.144944864317594E+01          0.111892032633265E+01
  |  29         -0.144907979937209E+00         -0.415177094037396E+00          0.400011723540879E+00
  |  30         -0.214585129361761E+01         -0.158035730835351E+01          0.437625007962460E+00
  |  31          0.931916772724552E+01          0.712016779490343E+00          0.600184240739052E+01
  |  32         -0.480632683040619E+00          0.113156694808434E+01         -0.362273356121093E+00
  |  33         -0.113346206221562E+01          0.584798837636297E+00          0.408644152445610E-01
  |  34          0.599487161048650E-01          0.102237117181196E+00          0.131665033878169E+00
  |  35          0.499135621962398E-01         -0.926216459256814E-01         -0.479776342476853E+00
  |  36          0.797658730949905E+00          0.126922046787246E+01         -0.248776957232021E+00
  |  37          0.110267679260111E+01          0.632073360430264E+00         -0.173274670114059E+01
  |  38         -0.274907962703533E-01          0.107336454849733E+01         -0.356895651679873E+00
  |  39         -0.184462468424471E+01          0.198197590856072E+01          0.824966163988656E+00
  |  40          0.175458413559654E+00          0.839645362998903E+00         -0.472842689042094E+00
  |  41         -0.110648159324594E+01          0.907917077863828E+00          0.533574173657226E+00
  |  42          0.208899310921711E+00          0.460302832680696E+00         -0.341211376842416E+00
  |  43          0.334363145116090E-02         -0.576473980035294E+00         -0.417010088444930E+00
  |  44          0.407975072196168E+00          0.146651072055652E+00          0.188467156152679E+00
  |  45         -0.223815547903767E+00         -0.243591302371209E+00          0.351711117113455E+00
  |  46          0.525434317661342E+01         -0.101947571124618E+01          0.261502584698465E+01
  |  47          0.239705140081676E+00         -0.468813720534676E+00         -0.143650900856134E+00
  |  48         -0.856474406621512E-01         -0.758294985130176E+00         -0.281654518870967E+01

  ------------------------------------ 
  Start decomposition of the XC Energy 
  ------------------------------------ 
  X and C from original XC functional choice 
  Hartree-Fock Energy :          0.000000000 Ha              0.000000000 eV
  X Energy            :       -745.527379071 Ha         -20286.832167187 eV
  C Energy            :        -19.344496229 Ha           -526.390524841 eV
  Total XC Energy     :       -764.871875300 Ha         -20813.222692028 eV
  ------------------------------------ 
  LDA X and C from self-consistent density 
  X Energy LDA        :       -690.167922570 Ha         -18780.424710632 eV
  C Energy LDA        :        -38.829009466 Ha          -1056.591106332 eV
  ------------------------------------ 
  End decomposition of the XC Energy 
  ------------------------------------ 

------------------------------------------------------------

------------------------------------------------------------------------------
  Final output of selected total energy values:

  The following output summarizes some interesting total energy values
  at the end of a run (AFTER all relaxation, molecular dynamics, etc.).

  | Total energy of the DFT / Hartree-Fock s.c.f. calculation      :        -314728.070294447 eV
  | Final zero-broadening corrected energy (caution - metals only) :        -314728.070294447 eV
  | For reference only, the value of 1 Hartree used in FHI-aims is :             27.211384500 eV

  Before relying on these values, please be sure to understand exactly which
  total energy value is referred to by a given number. Different objects may
  all carry the same name 'total energy'. Definitions:

  Total energy of the DFT / Hartree-Fock s.c.f. calculation:
  | Note that this energy does not include ANY quantities calculated after the
  | s.c.f. cycle, in particular not ANY RPA, MP2, etc. many-body perturbation terms.

  Final zero-broadening corrected energy:
  | For metallic systems only, a broadening of the occupation numbers at the Fermi
  | level can be extrapolated back to zero broadening by an electron-gas inspired
  | formula. For all systems that are not real metals, this value can be
  | meaningless and should be avoided.

------------------------------------------------------------------------------
  Methods described in the following list of references were used in this FHI-aims run.
  If you publish the results, please make sure to cite these reference if they apply.
  FHI-aims is an academic code, and for our developers (often, Ph.D. students
  and postdocs), scientific credit in the community is essential.
  Thank you for helping us!

  For any use of FHI-aims, please cite:

    Volker Blum, Ralf Gehrke, Felix Hanke, Paula Havu, Ville Havu,
    Xinguo Ren, Karsten Reuter, and Matthias Scheffler
    'Ab initio molecular simulations with numeric atom-centered orbitals'
    Computer Physics Communications 180, 2175-2196 (2009)
    http://dx.doi.org/10.1016/j.cpc.2009.06.022


  The provided symmetry information was generated with SPGlib:

    Atsushi Togo, Yusuke Seto, Dimitar Pashov
    SPGlib 1.7.3 obtained from http://spglib.sourceforge.net
    Copyright (C) 2008 Atsushi Togo


  The scalable eigensolver library ELPA was used in your run.
  ELPA is essential especially for large systems on hundreds or thousands of CPUs.
  For ELPA, please cite:

    Andreas Marek, Volker Blum, Rainer Johanni, Ville Havu, Bruno Lang,
    Thomas Auckenthaler, Alexander Heinecke, Hans-Joachim Bungartz, and Hermann Lederer,
    'The ELPA Library - Scalable Parallel Eigenvalue Solutions
    for Electronic Structure Theory and Computational Science'
    The Journal of Physics: Condensed Matter 26, 213201 (2014).
    http://dx.doi.org/10.1088/0953-8984/26/21/213201


  The ELSI infrastructure was used in your run to solve the Kohn-Sham electronic structure.
  Please check out http://elsi-interchange.org to learn more.
  If scalability is important for your project, please acknowledge ELSI by citing:

    V. W-z. Yu, F. Corsetti, A. Garcia, W. P. Huhn, M. Jacquelin, W. Jia,
    B. Lange, L. Lin, J. Lu, W. Mi, A. Seifitokaldani, A. Vazquez-Mayagoitia,
    C. Yang, H. Yang, and V. Blum
    'ELSI: A unified software interface for Kohn-Sham electronic structure solvers'
    Computer Physics Communications 222, 267-285 (2018).
    http://dx.doi.org/10.1016/j.cpc.2017.09.007


  For the real-space grid partitioning and parallelization used in this calculation, please cite:

    Ville Havu, Volker Blum, Paula Havu, and Matthias Scheffler,
    'Efficient O(N) integration for all-electron electronic structure calculation'
    'using numerically tabulated basis functions'
    Journal of Computational Physics 228, 8367-8379 (2009).
    http://dx.doi.org/10.1016/j.jcp.2009.08.008

  Of course, there are many other important community references, e.g., those cited in the
  above references. Our list is limited to references that describe implementations in the
  FHI-aims code. The reason is purely practical (length of this list) - please credit others as well.

 * A warning was issued further up regarding the CPU load.
   Some CPUs do not participate in the eigenvalue solution.
   In corner cases, this may be the correct behavior. Otherwise,
   consider using a scalapack/elpa version of the code for a parallel treatment.

------------------------------------------------------------
          Leaving FHI-aims.
          Date     :  20220723, Time     :  171209.102

          Computational steps:
          | Number of self-consistency cycles          :           21
          | Number of SCF (re)initializations          :            1

          Detailed time accounting                     :  max(cpu_time)    wall_clock(cpu1)
          | Total time                                 :      109.923 s         109.945 s
          | Preparation time                           :        0.411 s           0.427 s
          | Boundary condition initalization           :        0.244 s           0.244 s
          | Grid partitioning                          :        0.233 s           0.233 s
          | Preloading free-atom quantities on grid    :        0.009 s           0.009 s
          | Free-atom superposition energy             :        0.143 s           0.143 s
          | Total time for integrations                :       15.104 s          15.105 s
          | Total time for solution of K.-S. equations :        8.319 s           8.324 s
          | Total time for density & force components  :       31.275 s          31.276 s
          | Total time for mixing & preconditioning    :       19.663 s          19.670 s
          | Total time for Hartree multipole update    :        0.098 s           0.098 s
          | Total time for Hartree multipole sum       :       33.649 s          33.649 s
          | Total time for total energy evaluation     :        0.008 s           0.011 s

          Partial memory accounting:
          | Residual value for overall tracked memory usage across tasks :           0.000 MB (should be 0.000 MB)
          | Peak values for overall tracked memory usage (after allocating wave_pulay):
          |   Minimum:       25.894 MB (on task 17)
          |   Maximum:       51.011 MB (on task  2)
          |   Average:       43.598 MB
          | Largest tracked array allocation (kdm_complex):
          |   Minimum:        8.387 MB (on task  1)
          |   Maximum:        8.387 MB (on task  1)
          |   Average:        8.387 MB
          Note:  These values currently only include a subset of arrays which are explicitly tracked.
          The "true" memory usage will be greater.

          Have a nice day.
------------------------------------------------------------
