  MPI-parallelism will be employed.
------------------------------------------------------------
          Invoking FHI-aims ...
          Version 171221_1
          Compiled on 2020/09/23 at 19:46:43 on host login.service.

          When using FHI-aims, please cite the following reference:

          Volker Blum, Ralf Gehrke, Felix Hanke, Paula Havu,
          Ville Havu, Xinguo Ren, Karsten Reuter, and Matthias Scheffler,
          'Ab Initio Molecular Simulations with Numeric Atom-Centered Orbitals',
          Computer Physics Communications 180, 2175-2196 (2009)

          For any questions about FHI-aims, please visit the aimsclub website
          with its forums and wiki. Contributions to both the forums and the
          wiki are warmly encouraged - they are for you, and everyone is welcome there.

------------------------------------------------------------



  Date     :  20220324, Time     :  040545.720
  Time zero on CPU 1             :   0.853290000000000E-01  s.
  Internal wall clock time zero  :           417326745.720  s.

  FHI-aims created a unique identifier for this run for later identification
  aims_uuid : 11035C01-9F77-4F98-A0E5-5EA754413426

  Using       20 parallel tasks.
  Task        0 on host node010 reporting.
  Task        1 on host node010 reporting.
  Task        2 on host node010 reporting.
  Task        3 on host node010 reporting.
  Task        4 on host node010 reporting.
  Task        5 on host node010 reporting.
  Task        6 on host node010 reporting.
  Task        7 on host node010 reporting.
  Task        8 on host node010 reporting.
  Task        9 on host node010 reporting.
  Task       10 on host node010 reporting.
  Task       11 on host node010 reporting.
  Task       12 on host node010 reporting.
  Task       13 on host node010 reporting.
  Task       14 on host node010 reporting.
  Task       15 on host node010 reporting.
  Task       16 on host node010 reporting.
  Task       17 on host node010 reporting.
  Task       18 on host node010 reporting.
  Task       19 on host node010 reporting.

  Performing system and environment tests:
  *** Environment variable OMP_NUM_THREADS is not set
  *** For performance reasons you might want to set it to 1
  | Maximum stacksize for task 0: unlimited
  | Maximum stacksize for task 1: unlimited
  | Maximum stacksize for task 2: unlimited
  | Maximum stacksize for task 3: unlimited
  | Maximum stacksize for task 4: unlimited
  | Maximum stacksize for task 5: unlimited
  | Maximum stacksize for task 6: unlimited
  | Maximum stacksize for task 7: unlimited
  | Maximum stacksize for task 8: unlimited
  | Maximum stacksize for task 9: unlimited
  | Maximum stacksize for task 10: unlimited
  | Maximum stacksize for task 11: unlimited
  | Maximum stacksize for task 12: unlimited
  | Maximum stacksize for task 13: unlimited
  | Maximum stacksize for task 14: unlimited
  | Maximum stacksize for task 15: unlimited
  | Maximum stacksize for task 16: unlimited
  | Maximum stacksize for task 17: unlimited
  | Maximum stacksize for task 18: unlimited
  | Maximum stacksize for task 19: unlimited
  | Current stacksize for task 0: unlimited
  | Current stacksize for task 1: unlimited
  | Current stacksize for task 2: unlimited
  | Current stacksize for task 3: unlimited
  | Current stacksize for task 4: unlimited
  | Current stacksize for task 5: unlimited
  | Current stacksize for task 6: unlimited
  | Current stacksize for task 7: unlimited
  | Current stacksize for task 8: unlimited
  | Current stacksize for task 9: unlimited
  | Current stacksize for task 10: unlimited
  | Current stacksize for task 11: unlimited
  | Current stacksize for task 12: unlimited
  | Current stacksize for task 13: unlimited
  | Current stacksize for task 14: unlimited
  | Current stacksize for task 15: unlimited
  | Current stacksize for task 16: unlimited
  | Current stacksize for task 17: unlimited
  | Current stacksize for task 18: unlimited
  | Current stacksize for task 19: unlimited
  | Checking for scalapack...
  | Testing pdtran()...
  | All pdtran() tests passed.

  Obtaining array dimensions for all initial allocations:
  
  -----------------------------------------------------------------------
  Parsing control.in (first pass over file, find array dimensions only).
  The contents of control.in will be repeated verbatim below
  unless switched off by setting 'verbatim_writeout .false.' .
  in the first line of control.in .
  -----------------------------------------------------------------------
  
  #===============================================================================
  # FHI-aims file: ./control.in
  # Created using the Atomic Simulation Environment (ASE)
  # Wed Mar 24 12:41:28 2021
  #===============================================================================
  xc                                 pbe
  sc_accuracy_etot                   1e-06
  sc_accuracy_eev                    0.001
  sc_accuracy_rho                    1e-06
  sc_accuracy_forces                 0.0001
  friction_temperature               300  # default 300
  
    k_grid                             5 5 5
  
  ################################################################################
  #
  #  FHI-aims code project
  # Volker Blum, Fritz Haber Institute Berlin, 2009
  #
  #  Suggested "tight" defaults for Li atom (to be pasted into control.in file)
  #
  #  2016/03/22: Increased cutoff radius to 5.0 AA (Xinguo Ren, Aug 15, 2015)
  #
  ################################################################################
    species        Li
  #     global species definitions
      nucleus             3
      mass                6.941
  #
      l_hartree           6
  #
      cut_pot             5.0  2.0  1.0
      basis_dep_cutoff    1e-4
  #
      radial_base         29 7.0
      radial_multiplier   2
      angular_grids       specified
        division   0.4484  110
        division   0.5659  194
        division   0.6315  302
        division   0.6662  434
  #      division   0.8186  590
  #      division   0.9037  770
  #      division   6.2760  974
  #      outer_grid   974
        outer_grid  434
  ################################################################################
  #
  #  Definition of "minimal" basis
  #
  ################################################################################
  #     valence basis states
      valence      2  s   1.
  #     ion occupancy
      ion_occ      1  s   2.
  ################################################################################
  #
  #  Suggested additional basis functions. For production calculations,
  #  uncomment them one after another (the most important basis functions are
  #  listed first).
  #
  #  Constructed for dimers: 1.80 A, 2.25 A, 2.75 A, 3.50 A, 4.50 A
  #
  ################################################################################
  #  "First tier" - improvements: -189.23 meV to -6.35 meV
       hydro 2 p 1.6
       hydro 2 s 2
       hydro 3 d 2.6
  #  "Second tier" - improvements: -4.69 meV to -0.41 meV
       hydro 3 p 4.6
       hydro 2 p 1.8
       hydro 3 s 6.2
       hydro 4 d 4.7
       hydro 4 f 4.1
  #  "Third tier" - improvements: -0.20 meV to -0.15 meV
  #     hydro 4 d 0.95
  #     hydro 3 p 6.2
  #     hydro 3 s 1.7
  #  Further functions, listed for completeness
  #     VB: The following functions are only listed for completeness; test very
  #         carefully before any kind of production use. From the point of view
  #         of the basis construction, their main role is to fill up space,
  #         and they are solely determined by the location of the cutoff potential.
  #     hydro 3 p 0.1  # -0.15 meV
  #     hydro 4 d 5    # -0.12 meV
  #     hydro 4 f 0.1  # -0.14 meV
  #     hydro 5 g 0.1  # -0.06 meV
  
  
  ################################################################################
  #
  # For methods that use the localized form of the "resolution of identity" for
  # the two-electron Coulomb operator (RI_method LVL), particularly Hartree-Fock and
  # hybrid density functional calculations, the highest accuracy can be obtained by
  # uncommenting the line beginning with "for_aux"  below, thus adding an extra g radial
  # function to the construction of the product basis set for the expansion.
  # See Ref. New J. Phys. 17, 093020 (2015) for more information, particularly Figs. 1 and 6.
  #
  ################################################################################
  #
  # for_aux hydro 5 g 6.0
  ################################################################################
  #
  #  FHI-aims code project
  # Volker Blum, Fritz Haber Institute Berlin, 2010
  #
  #  Suggested "tight" defaults for P atom (to be pasted into control.in file)
  #
  #  Revised Jan 04, 2011, following tests (SiC) done by Lydia Nemec:
  #     d function of tier 2 now enabled by default.
  #
  ################################################################################
    species        P
  #     global species definitions
      nucleus             15
      mass                30.973762
  #
      l_hartree           6
  #
      cut_pot             4.0          2.0  1.0
      basis_dep_cutoff    1e-4
  #
      radial_base         43 7.0
      radial_multiplier   2
      angular_grids       specified
        division   0.2995   50
        division   0.5998  110
        division   0.9240  194
        division   1.0921  302
        division   1.2863  434
  #      division   1.3165  590
  #      division   1.4113  770
  #      division   1.5128  974
  #      division   2.4980 1202
        outer_grid  434
  ################################################################################
  #
  #  Definition of "minimal" basis
  #
  ################################################################################
  #     valence basis states
      valence      3  s   2.
      valence      3  p   3.
  #     ion occupancy
      ion_occ      3  s   1.
      ion_occ      3  p   2.
  ################################################################################
  #
  #  Suggested additional basis functions. For production calculations,
  #  uncomment them one after another (the most important basis functions are
  #  listed first).
  #
  #  Constructed for dimers: 1.625 A, 1.875 A, 2.5 A, 3.25 A, 4.0 A
  #
  ################################################################################
  #  "First tier" - improvements: -726.20 meV to -35.91 meV
       ionic 3 d auto
       ionic 3 p auto
       hydro 4 f 6.2
       hydro 5 g 8.6
       ionic 3 s auto
  #  "Second tier" - improvements: -16.02 meV to -1.71 meV
       hydro 4 d 6.2
  #     hydro 4 p 9.2
  #     hydro 5 f 9.8
  #     hydro 1 s 0.7
  #     hydro 5 g 13.2
  #  "Third tier" - improvements: -1.82 meV to -0.20 meV
  #     hydro 3 p 2.5
  #     hydro 4 d 6.4
  #     hydro 5 f 11.2
  #     hydro 2 s 1.5
  #  "Fourth tier" - improvements: -0.91 meV to -0.17 meV
  #     hydro 3 d 16.8
  #     hydro 5 g 18
  #     hydro 4 p 4.5
  #     hydro 3 s 2.1
  #  Further basis functions that fell out of the optimization - < -0.09 meV
  #     hydro 4 p 10.4
  #     hydro 4 d 17.6
  #     hydro 4 s 11.2
  ################################################################################
  #
  # For methods that use the localized form of the "resolution of identity" for
  # the two-electron Coulomb operator (RI_method LVL), particularly Hartree-Fock and
  # hybrid density functional calculations, the highest accuracy can be obtained by
  # uncommenting the line beginning with "for_aux"  below, thus adding an extra g radial
  # function to the construction of the product basis set for the expansion.
  # See Ref. New J. Phys. 17, 093020 (2015) for more information, particularly Figs. 1 and 6.
  #
  ################################################################################
  #
  # for_aux hydro 5 g 6.0
  ################################################################################
  #
  #  FHI-aims code project
  # Volker Blum, Fritz Haber Institute Berlin, 2009
  #
  #  Suggested "tight" defaults for S atom (to be pasted into control.in file)
  #
  #  Revised Jan 04, 2011, following tests (SiC) done by Lydia Nemec:
  #     d and g functions of tier 2 now enabled by default.
  #
  ################################################################################
    species        S
  #     global species definitions
      nucleus             16
      mass                32.065
  #
      l_hartree           6
  #
      cut_pot             4.0          2.0  1.0
      basis_dep_cutoff    1e-4
  #
      radial_base         44 7.0
      radial_multiplier   2
      angular_grids       specified
        division   0.4665  110
        division   0.5810  194
        division   0.7139  302
        division   0.8274  434
  #      division   0.9105  590
  #      division   1.0975  770
  #      division   1.2028  974
  #      outer_grid  974
        outer_grid  434
  ################################################################################
  #
  #  Definition of "minimal" basis
  #
  ################################################################################
  #     valence basis states
      valence      3  s   2.
      valence      3  p   4.
  #     ion occupancy
      ion_occ      3  s   1.
      ion_occ      3  p   3.
  ################################################################################
  #
  #  Suggested additional basis functions. For production calculations,
  #  uncomment them one after another (the most important basis functions are
  #  listed first).
  #
  #  Constructed for dimers: 1.6 A, 1.9 A, 2.5 A, 3.25 A, 4.0 A
  #
  ################################################################################
  #  "First tier" - improvements: -652.81 meV to -45.53 meV
       ionic 3 d auto
       hydro 2 p 1.8
       hydro 4 f 7
       ionic 3 s auto
  #  "Second tier" - improvements: -30.20 meV to -1.74 meV
       hydro 4 d 6.2
       hydro 5 g 10.8
  #     hydro 4 p 4.9
  #     hydro 5 f 10
  #     hydro 1 s 0.8
  #  "Third tier" - improvements: -1.04 meV to -0.20 meV
  #     hydro 3 d 3.9
  #     hydro 3 d 2.7
  #     hydro 5 g 12
  #     hydro 4 p 10.4
  #     hydro 5 f 12.4
  #     hydro 2 s 1.9
  #  "Fourth tier" - improvements: -0.35 meV to -0.06 meV
  #     hydro 4 d 10.4
  #     hydro 4 p 7.2
  #     hydro 4 d 10
  #     hydro 5 g 19.2
  #     hydro 4 s 12
  
  ################################################################################
  #
  # For methods that use the localized form of the "resolution of identity" for
  # the two-electron Coulomb operator (RI_method LVL), particularly Hartree-Fock and
  # hybrid density functional calculations, the highest accuracy can be obtained by
  # uncommenting the line beginning with "for_aux"  below, thus adding an extra g radial
  # function to the construction of the product basis set for the expansion.
  # See Ref. New J. Phys. 17, 093020 (2015) for more information, particularly Figs. 1 and 6.
  #
  ################################################################################
  #
  # for_aux hydro 5 g 6.0
  ################################################################################
  #
  #  FHI-aims code project
  # Volker Blum, Fritz Haber Institute Berlin, 2009
  #
  #  Suggested "tight" defaults for Cl atom (to be pasted into control.in file)
  #
  #  Revised Jan 04, 2011, following tests (SiC) done by Lydia Nemec:
  #     d function of tier 2 now enabled by default.
  #
  ################################################################################
    species        Cl
  #     global species definitions
      nucleus             17
      mass                35.453
  #
      l_hartree           6
  #
      cut_pot             4.0          2.0  1.0
      basis_dep_cutoff    1e-4
  #
      radial_base         45 7.0
      radial_multiplier   2
      angular_grids       specified
        division   0.4412  110
        division   0.5489  194
        division   0.6734  302
        division   0.7794  434
  #      division   0.9402  590
  #      division   1.0779  770
  #      division   1.1792  974
  #      outer_grid  974
        outer_grid  434
  ################################################################################
  #
  #  Definition of "minimal" basis
  #
  ################################################################################
  #     valence basis states
      valence      3  s   2.
      valence      3  p   5.
  #     ion occupancy
      ion_occ      3  s   1.
      ion_occ      3  p   4.
  ################################################################################
  #
  #  Suggested additional basis functions. For production calculations,
  #  uncomment them one after another (the most important basis functions are
  #  listed first).
  #
  #  Constructed for dimers: 1.65 A, 2.0 A, 2.5 A, 3.25 A, 4.0 A
  #
  ################################################################################
  #  "First tier" - improvements: -429.57 meV to -15.03 meV
       ionic 3 d auto
       hydro 2 p 1.9
       hydro 4 f 7.4
       ionic 3 s auto
       hydro 5 g 10.4
  #  "Second tier" - improvements: -7.84 meV to -0.48 meV
       hydro 3 d 3.3
  #     hydro 5 f 9.8
  #     hydro 1 s 0.75
  #     hydro 5 g 11.2
  #     hydro 4 p 10.4
  #  "Third tier" - improvements: -1.00 meV to -0.12 meV
  #     hydro 4 d 12.8
  #     hydro 4 f 4.6
  #     hydro 4 d 10.8
  #     hydro 2 s 1.8
  #     hydro 3 p 3
  #  Further functions that fell out - improvements: -0.10 meV and below
  #     hydro 5 f 14.4
  #     hydro 4 s 12.8
  #     hydro 3 d 11.6
  #     hydro 4 s 4.1
  ################################################################################
  #
  # For methods that use the localized form of the "resolution of identity" for
  # the two-electron Coulomb operator (RI_method LVL), particularly Hartree-Fock and
  # hybrid density functional calculations, the highest accuracy can be obtained by
  # uncommenting the line beginning with "for_aux"  below, thus adding an extra g radial
  # function to the construction of the product basis set for the expansion.
  # See Ref. New J. Phys. 17, 093020 (2015) for more information, particularly Figs. 1 and 6.
  #
  ################################################################################
  #
  # for_aux hydro 5 g 6.0
  ################################################################################
  #
  #  FHI-aims code project
  # Volker Blum, Fritz Haber Institute Berlin, 2009
  #
  #  Suggested "tight" defaults for Ge atom (to be pasted into control.in file)
  #
  ################################################################################
    species        Ge
  #     global species definitions
      nucleus             32
      mass                72.64
  #
      l_hartree           6
  #
      cut_pot             4.0          2.0  1.0
      basis_dep_cutoff    1e-4
  #
      radial_base         54 7.0
      radial_multiplier   2
      angular_grids       specified
        division   0.0947  110
        division   0.1314  194
        division   0.7746  302
        division   0.8710  434
  #      division   0.9770  590
  #      division   1.1356  770
  #      division   2.6430  974
  #      outer_grid  974
        outer_grid  434
  ################################################################################
  #
  #  Definition of "minimal" basis
  #
  ################################################################################
  #     valence basis states
      valence      4  s   2.
      valence      4  p   2.
      valence      3  d  10.
  #     ion occupancy
      ion_occ      4  s   1.
      ion_occ      4  p   1.
      ion_occ      3  d  10.
  ################################################################################
  #
  #  Suggested additional basis functions. For production calculations,
  #  uncomment them one after another (the most important basis functions are
  #  listed first).
  #
  #  Constructed for dimers: 1.80 A, 2.00 A, 2.35 A, 3.00 A, 4.00 A
  #
  ################################################################################
  #  "First tier" - improvements: -329.04 meV to -37.61 meV
       hydro 2 p 1.4
       hydro 3 d 4.3
       hydro 4 f 7.4
       hydro 3 s 3.4
  #  "Second tier" - improvements: -13.91 meV to -1.23 meV
  #     hydro 5 g 10.8
  #     hydro 3 d 2.5
  #     hydro 3 p 3.3
  #     hydro 4 f 12
  #     hydro 6 h 15.6
  #     hydro 3 s 7.2
  #  "Third tier" - improvements: -1.47 meV to -0.40 meV
  #     hydro 3 d 5.8
  #     hydro 4 f 4.3
  #     hydro 5 g 11.6
  #     hydro 5 s 14.8
  #     hydro 4 p 3.9
  #  "Fourth tier"  -improvements: -0.39 meV to -0.11 meV
  #     hydro 4 f 23.2
  #     hydro 2 s 6.2
  #     hydro 5 d 9.8
  #     hydro 5 p 6
  #     hydro 6 h 14.8
  #  Further functions - -0.13 meV and below
  #     hydro 5 f 9.6
  
  -----------------------------------------------------------------------
  Completed first pass over input file control.in .
  -----------------------------------------------------------------------
  
  
  -----------------------------------------------------------------------
  Parsing geometry.in (first pass over file, find array dimensions only).
  The contents of geometry.in will be repeated verbatim below
  unless switched off by setting 'verbatim_writeout .false.' .
  in the first line of geometry.in .
  -----------------------------------------------------------------------
  
  #=======================================================
  # FHI-aims file: /home/gz_fan/Downloads/software/fhiaims/fhiaims/work/test_band/Li5PS4Cl2/volscan/geometry.in.7
  # Created using the Atomic Simulation Environment (ASE)
  # Wed Mar 23 23:26:31 2022
  #=======================================================
  lattice_vector 10.0959597587700003 0.0000000000000000 0.0000000000000000
  lattice_vector 0.0000000000000000 10.0959597587700003 0.0000000000000000
  lattice_vector 0.0000000000000000 0.0000000000000000 10.0959597587700003
  atom 3.1303968955212285 0.2859531191413652 6.7893942751817562 Li
  atom 3.3425906554024105 0.0203824236198036 2.9961220669798423 Li
  atom 6.8978932972072338 3.2001216042510965 0.2955780994304526 Li
  atom 7.0970014421836183 6.8629787526969839 -0.0148579370465192 Li
  atom 0.3227933849080365 6.9456737072416859 3.2457848105314024 Li
  atom 9.7497203771108172 6.7947542357743513 6.9898250886566391 Li
  atom -0.1095572718885051 3.1953538290515358 6.8896246514353381 Li
  atom 3.6276058958660835 5.2941616459013598 1.6918913658840016 Li
  atom 6.8466372242364102 8.2903146890872019 5.2422623759874289 Li
  atom 6.5596700213916614 1.7885761794023061 4.7595662599445605 Li
  atom 3.1748190746955283 7.8641973532179641 4.8646299984180690 Li
  atom 0.0243459098613487 2.1627897135683245 2.0612428502668738 Li
  atom 8.1352873483264023 0.0157106019216095 1.7768560187891327 Li
  atom 8.2707677554521748 10.0151334761106110 8.3310324974305381 Li
  atom 2.2715847326105365 3.8980252009136591 5.1482930712259263 Li
  atom 4.7831064723811441 3.3702950539087699 7.9704515736922072 Li
  atom 8.1133899497671358 4.7309628536750434 3.5749867328059115 Li
  atom 1.7177396405767307 8.4917293739223076 0.1725534170521150 Li
  atom 1.8021908790007706 2.0177604499249968 9.7046258883757073 Li
  atom 4.9601887476926532 6.8737313517133334 8.0588034894699430 Li
  atom 0.0083241577341342 -0.0120269063345374 5.0166728399373159 P
  atom 4.9908444622016912 0.0616626183659538 -0.1366995904464153 P
  atom 0.0520296689204699 5.0891699496767240 0.0794296926773780 P
  atom 5.1583492609772463 4.9688763050010420 4.9145492306124492 P
  atom 1.1736295292535610 8.8152375968516541 6.2227864524837040 S
  atom 8.7684809132766812 1.1285359993994195 6.1773603731494493 S
  atom 8.9015701167033576 8.8564488385291220 3.7961946676024318 S
  atom 1.2916433971477723 1.2542999526206586 3.9537933144760355 S
  atom 6.1987443580003605 1.3186833465244971 8.7666104836234968 S
  atom 6.1326323051621392 8.9118178608556100 1.0897737125273561 S
  atom 3.7498055477352508 8.9518351830325091 8.7424337452588095 S
  atom 3.7709008833462287 1.3165103064578145 0.9929307244402857 S
  atom 8.8979445553598193 6.0773715398075421 1.4733970592049110 S
  atom 1.0867602045501352 6.4366656411010359 8.9784656294488325 S
  atom 8.9288010792312207 3.8567888118330886 9.0153040064379173 S
  atom 1.4491811751951773 3.9573769259069125 1.1861323378276130 S
  atom 6.2034704327727219 6.3756668140064336 3.7930697171689842 S
  atom 6.4515510069140634 3.8680328544019114 6.1317559093433553 S
  atom 4.1675298828991334 3.6840842700598757 3.5973369248204268 S
  atom 3.7015041569486375 5.8754711472856966 6.1689481100464780 S
  atom 2.4141570031319755 2.5435484442392369 7.3991510924275037 Cl
  atom 7.4597020288835196 7.6901714796293552 7.6340180865493119 Cl
  atom 4.8314413231219451 -0.2373882970846659 4.9908118970287143 Cl
  atom 5.2647542639839546 5.1311930265292771 -0.2635096137132458 Cl
  atom -0.0507232057241784 0.2654451602390375 0.1697075429755937 Cl
  atom 0.0306431149927007 5.0562149967780234 5.1237678365903792 Cl
  atom 7.7483150443294493 2.3989461169136286 2.5214588600210632 Cl
  atom 2.5210374186719848 7.6753866394399264 2.5113310995600147 Cl
  
  -----------------------------------------------------------------------
  Completed first pass over input file geometry.in .
  -----------------------------------------------------------------------
  

  Basic array size parameters:
  | Number of species                 :        5
  | Number of atoms                   :       48
  | Number of lattice vectors         :        3
  | Max. basis fn. angular momentum   :        4
  | Max. atomic/ionic basis occupied n:        4
  | Max. number of basis fn. types    :        3
  | Max. radial fns per species/type  :        8
  | Max. logarithmic grid size        :     1414
  | Max. radial integration grid size :      109
  | Max. angular integration grid size:      434
  | Max. angular grid division number :        8
  | Radial grid for Hartree potential :     1414
  | Number of spin channels           :        1

------------------------------------------------------------
          Reading file control.in.
------------------------------------------------------------
  XC: Using PBE gradient-corrected functionals.
  Convergence accuracy of total energy:  0.1000E-05
  Convergence accuracy of sum of eigenvalues:  0.1000E-02
  Convergence accuracy of self-consistent charge density:  0.1000E-05
  Convergence accuracy of forces:  0.1000E-03
  Friction is calculated at temperature of   0.3000E+03 K
  Found k-point grid:         5         5         5
 
  Reading configuration options for species Li                  .
  | Found nuclear charge :   3.0000
  | Found atomic mass :    6.94100000000000      amu
  | Found l_max for Hartree potential  :   6
  | Found cutoff potl. onset [A], width [A], scale factor :    5.00000    2.00000    1.00000
  | Threshold for basis-dependent cutoff potential is   0.100000E-03
  | Found data for basic radial integration grid :    29 points, outermost radius =    7.000 A
  | Found multiplier for basic radial grid :   2
  | Found angular grid specification: user-specified.
  | Specified grid contains     5 separate shells.
  | Check grid settings after all constraints further below.
  | Found free-atom valence shell :  2 s   1.000
  | Found free-ion valence shell :  1 s   2.000
  | Found hydrogenic basis function :  2 p   1.600
  | Found hydrogenic basis function :  2 s   2.000
  | Found hydrogenic basis function :  3 d   2.600
  | Found hydrogenic basis function :  3 p   4.600
  | Found hydrogenic basis function :  2 p   1.800
  | Found hydrogenic basis function :  3 s   6.200
  | Found hydrogenic basis function :  4 d   4.700
  | Found hydrogenic basis function :  4 f   4.100
  Species Li                  : Missing cutoff potential type.
  Defaulting to exp(1/x)/(1-x)^2 type cutoff potential.
  Species Li: No 'logarithmic' tag. Using default grid for free atom:
  | Default logarithmic grid data [bohr] : 0.1000E-03 0.1000E+03 0.1012E+01
  Species Li: On-site basis accuracy parameter (for Gram-Schmidt orthonormalisation) not specified.
  Using default value basis_acc =  0.1000000E-03.
  Species Li                  : Using default innermost maximum threshold i_radial=  2 for radial functions.
  Species Li                  : Default cutoff onset for free atom density etc. : 0.50000000E+01 AA.
  Species Li                  : Basic radial grid will be enhanced according to radial_multiplier =   2, to contain    59 grid points.
 
  Reading configuration options for species P                   .
  | Found nuclear charge :  15.0000
  | Found atomic mass :    30.9737620000000      amu
  | Found l_max for Hartree potential  :   6
  | Found cutoff potl. onset [A], width [A], scale factor :    4.00000    2.00000    1.00000
  | Threshold for basis-dependent cutoff potential is   0.100000E-03
  | Found data for basic radial integration grid :    43 points, outermost radius =    7.000 A
  | Found multiplier for basic radial grid :   2
  | Found angular grid specification: user-specified.
  | Specified grid contains     6 separate shells.
  | Check grid settings after all constraints further below.
  | Found free-atom valence shell :  3 s   2.000
  | Found free-atom valence shell :  3 p   3.000
  | Found free-ion valence shell :  3 s   1.000
  | Found free-ion valence shell :  3 p   2.000
  | Found ionic basis function :  3 d , default cutoff radius.
  | Found ionic basis function :  3 p , default cutoff radius.
  | Found hydrogenic basis function :  4 f   6.200
  | Found hydrogenic basis function :  5 g   8.600
  | Found ionic basis function :  3 s , default cutoff radius.
  | Found hydrogenic basis function :  4 d   6.200
  Species P                   : Missing cutoff potential type.
  Defaulting to exp(1/x)/(1-x)^2 type cutoff potential.
  Species P : No 'logarithmic' tag. Using default grid for free atom:
  | Default logarithmic grid data [bohr] : 0.1000E-03 0.1000E+03 0.1012E+01
  | Will include ionic basis functions of  2.0-fold positive P                    ion.
  Species P : On-site basis accuracy parameter (for Gram-Schmidt orthonormalisation) not specified.
  Using default value basis_acc =  0.1000000E-03.
  Species P                   : Using default innermost maximum threshold i_radial=  2 for radial functions.
  Species P                   : Default cutoff onset for free atom density etc. : 0.40000000E+01 AA.
  Species P                   : Basic radial grid will be enhanced according to radial_multiplier =   2, to contain    87 grid points.
 
  Reading configuration options for species S                   .
  | Found nuclear charge :  16.0000
  | Found atomic mass :    32.0650000000000      amu
  | Found l_max for Hartree potential  :   6
  | Found cutoff potl. onset [A], width [A], scale factor :    4.00000    2.00000    1.00000
  | Threshold for basis-dependent cutoff potential is   0.100000E-03
  | Found data for basic radial integration grid :    44 points, outermost radius =    7.000 A
  | Found multiplier for basic radial grid :   2
  | Found angular grid specification: user-specified.
  | Specified grid contains     5 separate shells.
  | Check grid settings after all constraints further below.
  | Found free-atom valence shell :  3 s   2.000
  | Found free-atom valence shell :  3 p   4.000
  | Found free-ion valence shell :  3 s   1.000
  | Found free-ion valence shell :  3 p   3.000
  | Found ionic basis function :  3 d , default cutoff radius.
  | Found hydrogenic basis function :  2 p   1.800
  | Found hydrogenic basis function :  4 f   7.000
  | Found ionic basis function :  3 s , default cutoff radius.
  | Found hydrogenic basis function :  4 d   6.200
  | Found hydrogenic basis function :  5 g  10.800
  Species S                   : Missing cutoff potential type.
  Defaulting to exp(1/x)/(1-x)^2 type cutoff potential.
  Species S : No 'logarithmic' tag. Using default grid for free atom:
  | Default logarithmic grid data [bohr] : 0.1000E-03 0.1000E+03 0.1012E+01
  | Will include ionic basis functions of  2.0-fold positive S                    ion.
  Species S : On-site basis accuracy parameter (for Gram-Schmidt orthonormalisation) not specified.
  Using default value basis_acc =  0.1000000E-03.
  Species S                   : Using default innermost maximum threshold i_radial=  2 for radial functions.
  Species S                   : Default cutoff onset for free atom density etc. : 0.40000000E+01 AA.
  Species S                   : Basic radial grid will be enhanced according to radial_multiplier =   2, to contain    89 grid points.
 
  Reading configuration options for species Cl                  .
  | Found nuclear charge :  17.0000
  | Found atomic mass :    35.4530000000000      amu
  | Found l_max for Hartree potential  :   6
  | Found cutoff potl. onset [A], width [A], scale factor :    4.00000    2.00000    1.00000
  | Threshold for basis-dependent cutoff potential is   0.100000E-03
  | Found data for basic radial integration grid :    45 points, outermost radius =    7.000 A
  | Found multiplier for basic radial grid :   2
  | Found angular grid specification: user-specified.
  | Specified grid contains     5 separate shells.
  | Check grid settings after all constraints further below.
  | Found free-atom valence shell :  3 s   2.000
  | Found free-atom valence shell :  3 p   5.000
  | Found free-ion valence shell :  3 s   1.000
  | Found free-ion valence shell :  3 p   4.000
  | Found ionic basis function :  3 d , default cutoff radius.
  | Found hydrogenic basis function :  2 p   1.900
  | Found hydrogenic basis function :  4 f   7.400
  | Found ionic basis function :  3 s , default cutoff radius.
  | Found hydrogenic basis function :  5 g  10.400
  | Found hydrogenic basis function :  3 d   3.300
  Species Cl                  : Missing cutoff potential type.
  Defaulting to exp(1/x)/(1-x)^2 type cutoff potential.
  Species Cl: No 'logarithmic' tag. Using default grid for free atom:
  | Default logarithmic grid data [bohr] : 0.1000E-03 0.1000E+03 0.1012E+01
  | Will include ionic basis functions of  2.0-fold positive Cl                   ion.
  Species Cl: On-site basis accuracy parameter (for Gram-Schmidt orthonormalisation) not specified.
  Using default value basis_acc =  0.1000000E-03.
  Species Cl                  : Using default innermost maximum threshold i_radial=  2 for radial functions.
  Species Cl                  : Default cutoff onset for free atom density etc. : 0.40000000E+01 AA.
  Species Cl                  : Basic radial grid will be enhanced according to radial_multiplier =   2, to contain    91 grid points.
 
  Reading configuration options for species Ge                  .
  | Found nuclear charge :  32.0000
  | Found atomic mass :    72.6400000000000      amu
  | Found l_max for Hartree potential  :   6
  | Found cutoff potl. onset [A], width [A], scale factor :    4.00000    2.00000    1.00000
  | Threshold for basis-dependent cutoff potential is   0.100000E-03
  | Found data for basic radial integration grid :    54 points, outermost radius =    7.000 A
  | Found multiplier for basic radial grid :   2
  | Found angular grid specification: user-specified.
  | Specified grid contains     5 separate shells.
  | Check grid settings after all constraints further below.
  | Found free-atom valence shell :  4 s   2.000
  | Found free-atom valence shell :  4 p   2.000
  | Found free-atom valence shell :  3 d  10.000
  | Found free-ion valence shell :  4 s   1.000
  | Found free-ion valence shell :  4 p   1.000
  | Found free-ion valence shell :  3 d  10.000
  | Found hydrogenic basis function :  2 p   1.400
  | Found hydrogenic basis function :  3 d   4.300
  | Found hydrogenic basis function :  4 f   7.400
  | Found hydrogenic basis function :  3 s   3.400
  Species Ge                  : Missing cutoff potential type.
  Defaulting to exp(1/x)/(1-x)^2 type cutoff potential.
  Species Ge: No 'logarithmic' tag. Using default grid for free atom:
  | Default logarithmic grid data [bohr] : 0.1000E-03 0.1000E+03 0.1012E+01
  Species Ge: On-site basis accuracy parameter (for Gram-Schmidt orthonormalisation) not specified.
  Using default value basis_acc =  0.1000000E-03.
  Species Ge                  : Using default innermost maximum threshold i_radial=  2 for radial functions.
  Species Ge                  : Default cutoff onset for free atom density etc. : 0.40000000E+01 AA.
  Species Ge                  : Basic radial grid will be enhanced according to radial_multiplier =   2, to contain   109 grid points.
 
  Finished reading input file 'control.in'. Consistency checks are next.
 
  MPI_IN_PLACE appears to work with this MPI implementation.
  | Keeping use_mpi_in_place .true. (see manual).
  Target number of points in a grid batch is not set. Defaulting to  100
  Method for grid partitioning is not set. Defaulting to parallel hash+maxmin partitioning.
  Batch size limit is not set. Defaulting to    200
  By default, will store active basis functions for each batch.
  If in need of memory, prune_basis_once .false. can be used to disable this option.
  communication_type for Hartree potential was not specified.
  Defaulting to calc_hartree .
  Defaulting to Pulay charge density mixer.
  Pulay mixer: Number of relevant iterations not set.
  Defaulting to    8 iterations.
  Pulay mixer: Number of initial linear mixing iterations not set.
  Defaulting to    0 iterations.
  Work space size for distributed Hartree potential not set.
  Defaulting to   0.200000E+03 MB.
  Mixing parameter for charge density mixing has not been set.
  Using default: charge_mix_param =     0.0500.
  The mixing parameter will be adjusted in iteration number     2 of the first full s.c.f. cycle only.
  Algorithm-dependent basis array size parameters:
  | n_max_pulay                         :        8
  Maximum number of self-consistency iterations not provided.
  Presetting  1000 iterations.
  Presetting      1001 iterations before the initial mixing cycle
  is restarted anyway using the sc_init_iter criterion / keyword.
  Presetting a factor      1.000 between actual scf density residual
  and density convergence criterion sc_accuracy_rho below which sc_init_iter
  takes no effect.
  Geometry relaxation not requested: no relaxation will be performed.
  Handling of forces: Unphysical translation and rotation will be removed from forces.
  No accuracy limit for integral partition fn. given. Defaulting to  0.1000E-14.
  No threshold value for u(r) in integrations given. Defaulting to  0.1000E-05.
  No occupation type (smearing scheme) given. Defaulting to Gaussian broadening, width =  0.1000E-01 eV.
  The width will be adjusted in iteration number     2 of the first full s.c.f. cycle only.
  S.C.F. convergence parameters will be adjusted in iteration number     2 of the first full s.c.f. cycle only.
  No accuracy for occupation numbers given. Defaulting to  0.1000E-12.
  No threshold value for occupation numbers given. Defaulting to  0.0000E+00.
  No accuracy for fermi level given. Defaulting to  0.1000E-19.
  Maximum # of iterations to find E_F not set. Defaulting to  200.
  Preferred method for the eigenvalue solver ('KS_method') not specified in 'control.in'.
  Defaulting to serial version, 'lapack_fast', since more k-points than CPUs available.
  Will not use alltoall communication since running on < 1024 CPUs.
  Threshold for basis singularities not set.
  Default threshold for basis singularities:  0.1000E-04
  partition_type (choice of integration weights) for integrals was not specified.
  | Using a version of the partition function of Stratmann and coworkers ('stratmann_smoother').
  | At each grid point, the set of atoms used to build the partition table is smoothly restricted to
  | only those atoms whose free-atom density would be non-zero at that grid point.
  Partitioning for Hartree potential was not defined. Using partition_type for integrals.
  | Adjusted default value of keyword multip_moments_threshold to:       0.10000000E-11
  | This value may affect high angular momentum components of the Hartree potential in periodic systems.
  Spin handling was not defined in control.in. Defaulting to unpolarized case.
  Angular momentum expansion for Kerker preconditioner not set explicitly.
  | Using default value of   0
  No explicit requirement for turning off preconditioner.
  | By default, it will be turned off when the charge convergence reaches
  | sc_accuracy_rho  =   0.100000E-05
  | sc_accuracy_eev  =   0.100000E-02
  | sc_accuracy_etot =   0.100000E-05
  No special mixing parameter while Kerker preconditioner is on.
  Using default: charge_mix_param =     0.0500.
  No q(lm)/r^(l+1) cutoff set for long-range Hartree potential.
  | Using default value of  0.100000E-09 .
  | Verify using the multipole_threshold keyword.
  Defaulting to new monopole extrapolation.
  Density update method: automatic selection selected.
  Using density matrix based charge density update.
  Using density matrix based charge density update.
  Using packed matrix style: index .
  Defaulting to use time-reversal symmetry for k-point grid.
------------------------------------------------------------


------------------------------------------------------------
          Reading geometry description geometry.in.
------------------------------------------------------------
 * Warning! You did not set the 'relativistic' flag in input file 'control.in'.
 * Since you are not attempting to treat any elements beyond Ca(Z=20), FHI-aims
 * will default to 'relativistic none'.
 * You must ensure that this is really what you want!!
 * For example, DO NOT compute total-energy differences between results from
 * different settings of the 'relativistic' flag.
  Input structure read successfully.
  The structure contains       48 atoms,  and a total of        512.000 electrons.

  Input geometry:
  | Unit cell:
  |       10.09595976        0.00000000        0.00000000
  |        0.00000000       10.09595976        0.00000000
  |        0.00000000        0.00000000       10.09595976
  | Atomic structure:
  |       Atom                x [A]            y [A]            z [A]
  |    1: Species Li            3.13039690        0.28595312        6.78939428
  |    2: Species Li            3.34259066        0.02038242        2.99612207
  |    3: Species Li            6.89789330        3.20012160        0.29557810
  |    4: Species Li            7.09700144        6.86297875       -0.01485794
  |    5: Species Li            0.32279338        6.94567371        3.24578481
  |    6: Species Li            9.74972038        6.79475424        6.98982509
  |    7: Species Li           -0.10955727        3.19535383        6.88962465
  |    8: Species Li            3.62760590        5.29416165        1.69189137
  |    9: Species Li            6.84663722        8.29031469        5.24226238
  |   10: Species Li            6.55967002        1.78857618        4.75956626
  |   11: Species Li            3.17481907        7.86419735        4.86463000
  |   12: Species Li            0.02434591        2.16278971        2.06124285
  |   13: Species Li            8.13528735        0.01571060        1.77685602
  |   14: Species Li            8.27076776       10.01513348        8.33103250
  |   15: Species Li            2.27158473        3.89802520        5.14829307
  |   16: Species Li            4.78310647        3.37029505        7.97045157
  |   17: Species Li            8.11338995        4.73096285        3.57498673
  |   18: Species Li            1.71773964        8.49172937        0.17255342
  |   19: Species Li            1.80219088        2.01776045        9.70462589
  |   20: Species Li            4.96018875        6.87373135        8.05880349
  |   21: Species P             0.00832416       -0.01202691        5.01667284
  |   22: Species P             4.99084446        0.06166262       -0.13669959
  |   23: Species P             0.05202967        5.08916995        0.07942969
  |   24: Species P             5.15834926        4.96887631        4.91454923
  |   25: Species S             1.17362953        8.81523760        6.22278645
  |   26: Species S             8.76848091        1.12853600        6.17736037
  |   27: Species S             8.90157012        8.85644884        3.79619467
  |   28: Species S             1.29164340        1.25429995        3.95379331
  |   29: Species S             6.19874436        1.31868335        8.76661048
  |   30: Species S             6.13263231        8.91181786        1.08977371
  |   31: Species S             3.74980555        8.95183518        8.74243375
  |   32: Species S             3.77090088        1.31651031        0.99293072
  |   33: Species S             8.89794456        6.07737154        1.47339706
  |   34: Species S             1.08676020        6.43666564        8.97846563
  |   35: Species S             8.92880108        3.85678881        9.01530401
  |   36: Species S             1.44918118        3.95737693        1.18613234
  |   37: Species S             6.20347043        6.37566681        3.79306972
  |   38: Species S             6.45155101        3.86803285        6.13175591
  |   39: Species S             4.16752988        3.68408427        3.59733692
  |   40: Species S             3.70150416        5.87547115        6.16894811
  |   41: Species Cl            2.41415700        2.54354844        7.39915109
  |   42: Species Cl            7.45970203        7.69017148        7.63401809
  |   43: Species Cl            4.83144132       -0.23738830        4.99081190
  |   44: Species Cl            5.26475426        5.13119303       -0.26350961
  |   45: Species Cl           -0.05072321        0.26544516        0.16970754
  |   46: Species Cl            0.03064311        5.05621500        5.12376784
  |   47: Species Cl            7.74831504        2.39894612        2.52145886
  |   48: Species Cl            2.52103742        7.67538664        2.51133110

  Lattice parameters for 3D lattice (in Angstroms) :    10.095960   10.095960   10.095960
  Angle(s) between unit vectors (in degrees)      :    90.000000   90.000000   90.000000

  |

  | The smallest distance between any two atoms is         2.07822967 AA.
  |
  | The first atom of this pair is atom number                     23 .
  | The second atom of this pair is atom number                    34 .
  | Wigner-Seitz cell of the first atom image           0     0     0 .
  | (The Wigner-Seitz cell of the second atom is 0 0 0  by definition.)

  Symmetry information by spglib:
  | Precision set to  0.1E-04
  | Number of Operations  : 1
  | Space group           : 1
  | International         : P1 p
  | Schoenflies           : C1^1

  Quantities derived from the lattice vectors:
  | Reciprocal lattice vector 1:  0.622347  0.000000  0.000000
  | Reciprocal lattice vector 2:  0.000000  0.622347  0.000000
  | Reciprocal lattice vector 3:  0.000000  0.000000  0.622347
  | Unit cell volume                               :   0.102907E+04  A^3

  Range separation radius for Ewald summation (hartree_convergence_parameter):      3.98743597 bohr.

  Fractional coordinates:
                         L1                L2                L3
       atom_frac         0.31006432        0.02832352        0.67248627  Li
       atom_frac         0.33108201        0.00201887        0.29676446  Li
       atom_frac         0.68323304        0.31697052        0.02927687  Li
       atom_frac         0.70295461        0.67977477       -0.00147167  Li
       atom_frac         0.03197253        0.68796567        0.32149344  Li
       atom_frac         0.96570515        0.67301717        0.69233884  Li
       atom_frac        -0.01085160        0.31649827        0.68241404  Li
       atom_frac         0.35931263        0.52438419        0.16758103  Li
       atom_frac         0.67815615        0.82115172        0.51924359  Li
       atom_frac         0.64973219        0.17715762        0.47143277  Li
       atom_frac         0.31446432        0.77894500        0.48183928  Li
       atom_frac         0.00241145        0.21422329        0.20416512  Li
       atom_frac         0.80579633        0.00155613        0.17599674  Li
       atom_frac         0.81921560        0.99199420        0.82518480  Li
       atom_frac         0.22499938        0.38609754        0.50993597  Li
       atom_frac         0.47376442        0.33382612        0.78946943  Li
       atom_frac         0.80362741        0.46859961        0.35410073  Li
       atom_frac         0.17014129        0.84110175        0.01709133  Li
       atom_frac         0.17850615        0.19985821        0.96123857  Li
       atom_frac         0.49130433        0.68083981        0.79822064  Li
       atom_frac         0.00082450       -0.00119126        0.49689905  P
       atom_frac         0.49434076        0.00610765       -0.01354003  P
       atom_frac         0.00515351        0.50407986        0.00786747  P
       atom_frac         0.51093203        0.49216483        0.48678376  P
       atom_frac         0.11624745        0.87314508        0.61636403  S
       atom_frac         0.86851385        0.11178095        0.61186460  S
       atom_frac         0.88169628        0.87722703        0.37601127  S
       atom_frac         0.12793666        0.12423781        0.39162134  S
       atom_frac         0.61398267        0.13061496        0.86832859  S
       atom_frac         0.60743431        0.88271131        0.10794157  S
       atom_frac         0.37141645        0.88667501        0.86593389  S
       atom_frac         0.37350593        0.13039972        0.09834931  S
       atom_frac         0.88133717        0.60196075        0.14593928  S
       atom_frac         0.10764308        0.63754866        0.88931274  S
       atom_frac         0.88439349        0.38201309        0.89296156  S
       atom_frac         0.14354070        0.39197630        0.11748584  S
       atom_frac         0.61445079        0.63150676        0.37570175  S
       atom_frac         0.63902305        0.38312681        0.60734750  S
       atom_frac         0.41279185        0.36490679        0.35631451  S
       atom_frac         0.36663222        0.58196262        0.61103137  S
       atom_frac         0.23912110        0.25193726        0.73288239  Cl
       atom_frac         0.73887993        0.76170782        0.75614585  Cl
       atom_frac         0.47855196       -0.02351320        0.49433754  Cl
       atom_frac         0.52147140        0.50824222       -0.02610050  Cl
       atom_frac        -0.00502411        0.02629222        0.01680945  Cl
       atom_frac         0.00303519        0.50081568        0.50750676  Cl
       atom_frac         0.76746691        0.23761447        0.24974930  Cl
       atom_frac         0.24970755        0.76024339        0.24874615  Cl

  Number of empty states per atom not set in control.in - providing a guess from actual geometry.
  | Total number of empty states used during s.c.f. cycle:      114
  If you use a very high smearing, use empty_states (per atom!) in control.in to increase this value.

  Structure-dependent array size parameters: 
  | Maximum number of distinct radial functions  :       55
  | Maximum number of basis functions            :     1692
  | Number of Kohn-Sham states (occupied + empty):      370
------------------------------------------------------------

------------------------------------------------------------
          Preparing all fixed parts of the calculation.
------------------------------------------------------------
  Determining machine precision:
    2.225073858507201E-308
  Setting up grids for atomic and cluster calculations.

  Creating wave function, potential, and density for free atoms.

  Species: Li

  List of occupied orbitals and eigenvalues:
    n    l              occ      energy [Ha]    energy [eV]
    1    0           2.0000        -1.901473       -51.7417
    2    0           1.0000        -0.103132        -2.8064


  Species: P

  List of occupied orbitals and eigenvalues:
    n    l              occ      energy [Ha]    energy [eV]
    1    0           2.0000       -76.356288     -2077.7603
    2    0           2.0000        -6.358286      -173.0178
    3    0           2.0000        -0.509419       -13.8620
    2    1           6.0000        -4.573976      -124.4642
    3    1           3.0000        -0.201560        -5.4847


  Species: S

  List of occupied orbitals and eigenvalues:
    n    l              occ      energy [Ha]    energy [eV]
    1    0           2.0000       -88.108280     -2397.5483
    2    0           2.0000        -7.732485      -210.4116
    3    0           2.0000        -0.629532       -17.1304
    2    1           6.0000        -5.750324      -156.4743
    3    1           4.0000        -0.257562        -7.0086


  Species: Cl

  List of occupied orbitals and eigenvalues:
    n    l              occ      energy [Ha]    energy [eV]
    1    0           2.0000      -100.710795     -2740.4802
    2    0           2.0000        -9.222997      -250.9705
    3    0           2.0000        -0.754245       -20.5241
    2    1           6.0000        -7.039872      -191.5647
    3    1           5.0000        -0.316221        -8.6048


  Species: Ge

  List of occupied orbitals and eigenvalues:
    n    l              occ      energy [Ha]    energy [eV]
    1    0           2.0000      -397.001973    -10802.9733
    2    0           2.0000       -49.131904     -1336.9471
    3    0           2.0000        -5.983904      -162.8303
    4    0           2.0000        -0.415506       -11.3065
    2    1           6.0000       -43.739541     -1190.2135
    3    1           6.0000        -4.198710      -114.2527
    4    1           2.0000        -0.141032        -3.8377
    3    2          10.0000        -1.103726       -30.0339

  Creating fixed part of basis set: Ionic, confined, hydrogenic.
 
  Li                   hydrogenic:
 
  List of hydrogenic basis orbitals: 
    n    l      effective z      eigenvalue [eV]  inner max. [A]     outer max. [A]     outer radius [A]   
    2    1         1.600000        -8.7048           1.319365           1.319365           6.386418
    2    0         2.000000       -13.6052           0.203259           1.385485           6.232164
    3    2         2.600000       -10.2084           1.835332           1.835332           6.386418
    3    1         4.600000       -31.9883           0.343834           1.385485           5.381805
    2    1         1.800000       -11.0199           1.181903           1.181903           6.386418
    3    0         6.200000       -58.1113           0.062858           1.111823           4.371906
    4    2         4.700000       -18.7772           0.761113           2.401695           6.386418
    4    3         4.100000       -14.2833           2.073992           2.073992           6.386418
 
 
  P                    ion:

  List of free ionic orbitals and eigenvalues:
    n    l      energy [Ha]    energy [eV]
    1    0       -77.297133     -2103.3620
    2    0        -7.273914      -197.9333
    3    0        -1.267536       -34.4914
    2    1        -5.491316      -149.4263
    3    1        -0.913470       -24.8568


  List of ionic basis orbitals and eigenvalues:
    n    l      energy [Ha]    energy [eV]    outer radius [A]
    3    2        -0.458060       -12.4644       5.404780
    3    1        -0.913461       -24.8565       4.724723
    3    0        -1.267529       -34.4912       4.232463

 
  P                    hydrogenic:
 
  List of hydrogenic basis orbitals: 
    n    l      effective z      eigenvalue [eV]  inner max. [A]     outer max. [A]     outer radius [A]   
    4    3         6.200000       -32.6870           1.357793           1.357793           5.339109
    5    4         8.600000       -40.2502           1.534356           1.534356           5.404780
    4    2         6.200000       -32.6848           0.577014           1.820771           5.404780
 
 
  S                    ion:

  List of free ionic orbitals and eigenvalues:
    n    l      energy [Ha]    energy [eV]
    1    0       -89.127201     -2425.2745
    2    0        -8.724378      -237.4024
    3    0        -1.464668       -39.8556
    2    1        -6.744348      -183.5230
    3    1        -1.048520       -28.5317


  List of ionic basis orbitals and eigenvalues:
    n    l      energy [Ha]    energy [eV]    outer radius [A]
    3    2        -0.496514       -13.5108       5.386362
    3    0        -1.464662       -39.8555       3.967934

 
  S                    hydrogenic:
 
  List of hydrogenic basis orbitals: 
    n    l      effective z      eigenvalue [eV]  inner max. [A]     outer max. [A]     outer radius [A]   
    2    1         1.800000       -11.0118           1.168531           1.168531           5.452614
    4    3         7.000000       -41.6672           1.212182           1.212182           5.066981
    4    2         6.200000       -32.6848           0.582121           1.814567           5.386362
    5    4        10.800000       -63.4785           1.227092           1.227092           4.766538
 
 
  Cl                   ion:

  List of free ionic orbitals and eigenvalues:
    n    l      energy [Ha]    energy [eV]
    1    0      -101.807232     -2770.3157
    2    0       -10.290876      -280.0290
    3    0        -1.664625       -45.2967
    2    1        -8.110237      -220.6908
    3    1        -1.183915       -32.2160


  List of ionic basis orbitals and eigenvalues:
    n    l      energy [Ha]    energy [eV]    outer radius [A]
    3    2        -0.529392       -14.4055       5.389057
    3    0        -1.664620       -45.2966       3.780461

 
  Cl                   hydrogenic:
 
  List of hydrogenic basis orbitals: 
    n    l      effective z      eigenvalue [eV]  inner max. [A]     outer max. [A]     outer radius [A]   
    2    1         1.900000       -12.2741           1.113321           1.113321           5.389057
    4    3         7.400000       -46.5653           1.140877           1.140877           4.886961
    5    4        10.400000       -58.8635           1.273568           1.273568           4.886961
    3    2         3.300000       -16.4532           1.439178           1.439178           5.455343
 
 
  Ge                   hydrogenic:
 
  List of hydrogenic basis orbitals: 
    n    l      effective z      eigenvalue [eV]  inner max. [A]     outer max. [A]     outer radius [A]   
    2    1         1.400000        -6.6027           1.497690           1.497690           5.472700
    3    2         4.300000       -27.9518           1.103293           1.103293           5.275625
    4    3         7.400000       -46.5653           1.144507           1.144507           4.902509
    3    0         3.400000       -17.4423           0.114943           2.033073           5.472700
 

  Adding cutoff potential to free-atom effective potential.
  Creating atomic-like basis functions for current effective potential.

  Species Li                  :

  List of atomic basis orbitals and eigenvalues:
    n    l      energy [Ha]    energy [eV]    outer radius [A]
    1    0        -1.901473       -51.7417       4.318785
    2    0        -0.103132        -2.8064       6.464971


  Species P                   :

  List of atomic basis orbitals and eigenvalues:
    n    l      energy [Ha]    energy [eV]    outer radius [A]
    1    0       -76.356288     -2077.7603       0.736837
    2    0        -6.358286      -173.0178       2.532824
    3    0        -0.509419       -13.8620       5.274236
    2    1        -4.573976      -124.4642       2.862183
    3    1        -0.201560        -5.4847       5.404780


  Species S                   :

  List of atomic basis orbitals and eigenvalues:
    n    l      energy [Ha]    energy [eV]    outer radius [A]
    1    0       -88.108280     -2397.5483       0.682391
    2    0        -7.732485      -210.4116       2.317169
    3    0        -0.629532       -17.1304       5.256262
    2    1        -5.750324      -156.4743       2.555240
    3    1        -0.257562        -7.0086       5.386362


  Species Cl                  :

  List of atomic basis orbitals and eigenvalues:
    n    l      energy [Ha]    energy [eV]    outer radius [A]
    1    0      -100.710795     -2740.4802       0.642251
    2    0        -9.222997      -250.9705       2.128190
    3    0        -0.754245       -20.5241       5.194994
    2    1        -7.039872      -191.5647       2.346844
    3    1        -0.316221        -8.6048       5.323577


  Species Ge                  :

  List of atomic basis orbitals and eigenvalues:
    n    l      energy [Ha]    energy [eV]    outer radius [A]
    1    0      -397.001973    -10802.9733       0.332955
    2    0       -49.131904     -1336.9471       0.964471
    3    0        -5.983904      -162.8303       2.660457
    4    0        -0.415506       -11.3065       5.340515
    2    1       -43.739541     -1190.2135       0.988343
    3    1        -4.198710      -114.2527       3.043392
    4    1        -0.141032        -3.8377       5.406203
    3    2        -1.103726       -30.0339       4.842941

  Assembling full basis from fixed parts.
  | Species Li :   atomic orbital   1 s accepted.
  | Species Li :    hydro orbital   3 s accepted.
  | Species Li :    hydro orbital   2 s accepted.
  | Species Li :   atomic orbital   2 s accepted.
  | Species Li :    hydro orbital   3 p accepted.
  | Species Li :    hydro orbital   2 p accepted.
  | Species Li :    hydro orbital   2 p accepted.
  | Species Li :    hydro orbital   3 d accepted.
  | Species Li :    hydro orbital   4 d accepted.
  | Species Li :    hydro orbital   4 f accepted.
  | Species P :   atomic orbital   1 s accepted.
  | Species P :   atomic orbital   2 s accepted.
  | Species P :    ionic orbital   3 s accepted.
  | Species P :   atomic orbital   3 s accepted.
  | Species P :   atomic orbital   2 p accepted.
  | Species P :    ionic orbital   3 p accepted.
  | Species P :   atomic orbital   3 p accepted.
  | Species P :    ionic orbital   3 d accepted.
  | Species P :    hydro orbital   4 d accepted.
  | Species P :    hydro orbital   4 f accepted.
  | Species P :    hydro orbital   5 g accepted.
  | Species S :   atomic orbital   1 s accepted.
  | Species S :   atomic orbital   2 s accepted.
  | Species S :    ionic orbital   3 s accepted.
  | Species S :   atomic orbital   3 s accepted.
  | Species S :   atomic orbital   2 p accepted.
  | Species S :   atomic orbital   3 p accepted.
  | Species S :    hydro orbital   2 p accepted.
  | Species S :    ionic orbital   3 d accepted.
  | Species S :    hydro orbital   4 d accepted.
  | Species S :    hydro orbital   4 f accepted.
  | Species S :    hydro orbital   5 g accepted.
  | Species Cl :   atomic orbital   1 s accepted.
  | Species Cl :   atomic orbital   2 s accepted.
  | Species Cl :    ionic orbital   3 s accepted.
  | Species Cl :   atomic orbital   3 s accepted.
  | Species Cl :   atomic orbital   2 p accepted.
  | Species Cl :   atomic orbital   3 p accepted.
  | Species Cl :    hydro orbital   2 p accepted.
  | Species Cl :    ionic orbital   3 d accepted.
  | Species Cl :    hydro orbital   3 d accepted.
  | Species Cl :    hydro orbital   4 f accepted.
  | Species Cl :    hydro orbital   5 g accepted.
  | Species Ge :   atomic orbital   1 s accepted.
  | Species Ge :   atomic orbital   2 s accepted.
  | Species Ge :   atomic orbital   3 s accepted.
  | Species Ge :   atomic orbital   4 s accepted.
  | Species Ge :    hydro orbital   3 s accepted.
  | Species Ge :   atomic orbital   2 p accepted.
  | Species Ge :   atomic orbital   3 p accepted.
  | Species Ge :   atomic orbital   4 p accepted.
  | Species Ge :    hydro orbital   2 p accepted.
  | Species Ge :   atomic orbital   3 d accepted.
  | Species Ge :    hydro orbital   3 d accepted.
  | Species Ge :    hydro orbital   4 f accepted.
 
  Basis size parameters after reduction:
  | Total number of radial functions:       55
  | Total number of basis functions :     1692
 
  Per-task memory consumption for arrays in subroutine allocate_ext:
  |          14.980084MB.
  Testing on-site integration grid accuracy.
  |  Species  Function  <phi|h_atom|phi> (log., in eV)  <phi|h_atom|phi> (rad., in eV)
           1        1                -51.7417001117                -51.7417000312
           1        2                 33.5927188637                 33.5926505054
           1        3                 69.1469416012                 69.1473382425
           1        4                 48.8336153902                 48.8810182289 ***
           1        5                 17.1749490570                 17.1749098864
           1        6                 32.1201183828                 32.1217831653
           1        7                  6.0166019876                  6.0249480535
           1        8                  4.9175332206                  4.9194842525
           1        9                 28.8010599263                 28.8011051086
           1       10                  9.9331480983                  9.9353515081
           2       11              -2077.7602992527              -2077.7602630746
           2       12               -173.0177635265               -173.0177629291
           2       13                -13.5620523038                -13.5620521963
           2       14                  6.3015351439                  6.3015396353
           2       15               -124.4642131574               -124.4642129967
           2       16                 -4.8468074573                 -4.8468065719
           2       17                  5.8113348591                  5.8108493787
           2       18                  5.1218113540                  5.1217878152
           2       19                 22.1386653152                 22.1386624883
           2       20                 19.3047268689                 19.3047231214
           2       21                 30.3235883931                 30.3235836780
           3       22              -2397.5482725833              -2397.5482291499
           3       23               -210.4116306505               -210.4116300246
           3       24                -16.8591546483                -16.8591544436
           3       25                  7.5848976656                  7.5849001027
           3       26               -156.4742745766               -156.4742744285
           3       27                 -7.0089268331                 -7.0089287934
           3       28                  6.8790437028                  6.8789536772
           3       29                  6.0023049431                  6.0023019693
           3       30                 19.5634804122                 19.5634829634
           3       31                 24.6809503130                 24.6809503093
           3       32                 47.5107032033                 47.5107040524
           4       33              -2740.4801671239              -2740.4801157382
           4       34               -250.9705040601               -250.9705032686
           4       35                -20.2716828479                -20.2716826054
           4       36                  9.0161300765                  9.0161279813
           4       37               -191.5646602865               -191.5646600866
           4       38                 -8.6049187754                 -8.6049181478
           4       39                  7.6458046208                  7.6458222053
           4       40                  6.9765726558                  6.9765744583
           4       41                 16.6546700656                 16.6546956458
           4       42                 28.0343243807                 28.0343233726
           4       43                 45.0370063060                 45.0370052039
           5       44             -10802.9733414751             -10802.9729425948
           5       45              -1336.9471188055              -1336.9471110723
           5       46               -162.8303199730               -162.8303191139
           5       47                -11.3065970458                -11.3065974621
           5       48                  3.9107640727                  3.9106883215
           5       49              -1190.2134555916              -1190.2134541175
           5       50               -114.2527084804               -114.2527080190
           5       51                 -3.8416627318                 -3.8416744430
           5       52                  4.9939274213                  4.9938228637
           5       53                -30.0339196701                -30.0339195807
           5       54                  9.6865334021                  9.6865320095
           5       55                 25.2138836360                 25.2138837585
 * Note: Onsite integrals marked "***" above are less accurate than
 * onsite_accuracy_threshold =    0.03000 eV. Usually, this is harmless.
 * When in doubt, tighten the "radial" and/or "radial_multiplier" flags to check.

  Preparing densities etc. for the partition functions (integrals / Hartree potential).

  Preparations completed.
  max(cpu_time)          :      0.558 s.
  Wall clock time (cpu1) :      0.559 s.
------------------------------------------------------------

------------------------------------------------------------
          Begin self-consistency loop: Initialization.

          Date     :  20220324, Time     :  040546.372
------------------------------------------------------------

  Initializing index lists of integration centers etc. from given atomic structure:
  Mapping all atomic coordinates to central unit cell.

  Initializing the k-points
          Using symmetry for reducing the k-points
  | k-points reduced from:      125 to       63
  | Number of k-points                             :        63
  The eigenvectors in the calculations are COMPLEX.
  | K-points in task   0:         3
  | K-points in task   1:         4
  | K-points in task   2:         4
  | K-points in task   3:         4
  | K-points in task   4:         3
  | K-points in task   5:         3
  | K-points in task   6:         3
  | K-points in task   7:         3
  | K-points in task   8:         3
  | K-points in task   9:         3
  | K-points in task  10:         3
  | K-points in task  11:         3
  | K-points in task  12:         3
  | K-points in task  13:         3
  | K-points in task  14:         3
  | K-points in task  15:         3
  | K-points in task  16:         3
  | K-points in task  17:         3
  | K-points in task  18:         3
  | K-points in task  19:         3
  | Number of basis functions in the Hamiltonian integrals :     13651
  | Number of basis functions in a single unit cell        :      1692
  | Number of centers in hartree potential         :      2124
  | Number of centers in hartree multipole         :      1459
  | Number of centers in electron density summation:      1166
  | Number of centers in basis integrals           :      1231
  | Number of centers in integrals                 :       470
  | Number of centers in hamiltonian               :      1422
  | Consuming         80 KiB for k_phase.
  | Number of super-cells (origin) [n_cells]                     :         343
  | Number of super-cells (after PM_index) [n_cells]             :          82
  | Number of super-cells in hamiltonian [n_cells_in_hamiltonian]:          82
  | Size of matrix packed + index [n_hamiltonian_matrix_size] :     8007684
  Partitioning the integration grid into batches with parallel hashing+maxmin method.
  | Number of batches:    10408
  | Maximal batch size:     120
  | Minimal batch size:      49
  | Average batch size:      97.583
  | Standard deviation of batch sizes:      11.229

  Integration load balanced across    20 MPI tasks.
  Work distribution over tasks is as follows:
  Task     0 has      50763 integration points.
  Task     1 has      50826 integration points.
  Task     2 has      50819 integration points.
  Task     3 has      50742 integration points.
  Task     4 has      50750 integration points.
  Task     5 has      50853 integration points.
  Task     6 has      50749 integration points.
  Task     7 has      50826 integration points.
  Task     8 has      50784 integration points.
  Task     9 has      50785 integration points.
  Task    10 has      50811 integration points.
  Task    11 has      50772 integration points.
  Task    12 has      50758 integration points.
  Task    13 has      50755 integration points.
  Task    14 has      50751 integration points.
  Task    15 has      50771 integration points.
  Task    16 has      50797 integration points.
  Task    17 has      50761 integration points.
  Task    18 has      50818 integration points.
  Task    19 has      50757 integration points.
  Initializing partition tables, free-atom densities, potentials, etc. across the integration grid (initialize_grid_storage).
  | initialize_grid_storage: Actual outermost partition radius vs. multipole_radius_free
  | (-- VB: in principle, multipole_radius_free should be larger, hence this output)
  | Species        1: Confinement radius =              7.000000000000000 AA, multipole_radius_free =              7.042572113910259 AA.
  | Species        1: outer_partition_radius set to              7.042572113910259 AA .
  | Species        2: Confinement radius =              6.000000000000000 AA, multipole_radius_free =              6.033387558927091 AA.
  | Species        2: outer_partition_radius set to              6.033387558927091 AA .
  | Species        3: Confinement radius =              6.000000000000000 AA, multipole_radius_free =              6.012827091137924 AA.
  | Species        3: outer_partition_radius set to              6.012827091137924 AA .
  | Species        4: Confinement radius =              6.000000000000000 AA, multipole_radius_free =              6.015836048499353 AA.
  | Species        4: outer_partition_radius set to              6.015836048499353 AA .
  | Species        5: Confinement radius =              6.000000000000000 AA, multipole_radius_free =              6.034976375468270 AA.
  | Species        5: outer_partition_radius set to              6.034976375468270 AA .
  | Original list of interatomic distances with        1231 x       1231 entries is created.
  | Net number of integration points:  1015648
  | of which are non-zero points    :   821124
  | Numerical average free-atom electrostatic potential    :     -9.65159586 eV
  Renormalizing the initial density to the exact electron count on the 3D integration grid.
  | Initial density: Formal number of electrons (from input files) :     512.0000000000
  | Integrated number of electrons on 3D grid     :     511.9997770294
  | Charge integration error                      :      -0.0002229706
  | Normalization factor for density and gradient :       1.0000004355
  Obtaining max. number of non-zero basis functions in each batch (get_n_compute_maxes).
  | Maximal number of non-zero basis functions:     1699 in task     0
  | Maximal number of non-zero basis functions:     1650 in task     1
  | Maximal number of non-zero basis functions:     1669 in task     2
  | Maximal number of non-zero basis functions:     1633 in task     3
  | Maximal number of non-zero basis functions:     1702 in task     4
  | Maximal number of non-zero basis functions:     1742 in task     5
  | Maximal number of non-zero basis functions:     1708 in task     6
  | Maximal number of non-zero basis functions:     1652 in task     7
  | Maximal number of non-zero basis functions:     1661 in task     8
  | Maximal number of non-zero basis functions:     1675 in task     9
  | Maximal number of non-zero basis functions:     1703 in task    10
  | Maximal number of non-zero basis functions:     1658 in task    11
  | Maximal number of non-zero basis functions:     1720 in task    12
  | Maximal number of non-zero basis functions:     1694 in task    13
  | Maximal number of non-zero basis functions:     1688 in task    14
  | Maximal number of non-zero basis functions:     1654 in task    15
  | Maximal number of non-zero basis functions:     1660 in task    16
  | Maximal number of non-zero basis functions:     1729 in task    17
  | Maximal number of non-zero basis functions:     1685 in task    18
  | Maximal number of non-zero basis functions:     1659 in task    19
  Allocating       30.050 MB for KS_eigenvector_complex
  Integrating Hamiltonian matrix: batch-based integration.
  Time summed over all CPUs for integration: real work      303.499 s, elapsed      309.427 s
  Integrating overlap matrix.
  Time summed over all CPUs for integration: real work      223.300 s, elapsed      226.226 s
  Decreasing sparse matrix size:
   Tolerance:  9.999999824516700E-014
   Hamiltonian matrix
  | Array has  7164726 nonzero elements out of  8007684 elements
  | Sparsity factor is 0.105
   Overlap matrix
  | Array has  6773677 nonzero elements out of  8007684 elements
  | Sparsity factor is 0.154
  New size of hamiltonian matrix:     7164834

  Updating Kohn-Sham eigenvalues and eigenvectors using ELSI and the ELPA eigensolver.
  Overlap matrix is nonsingular
  | Lowest eigenvalue of overlap  :  0.70E-04
  | Highest eigenvalue of overlap :  0.11E+02
  Finished singularity check of overlap matrix
  | Time :     3.375 s
  Finished Cholesky decomposition
  | Time :     0.443 s
  Finished transformation to standard eigenproblem
  | Time :     0.761 s
  Starting LAPACK eigensolver
  Finished solving standard eigenproblem
  | Time :     3.525 s
  Finished back-transformation of eigenvectors
  | Time :     0.130 s

  Obtaining occupation numbers and chemical potential using ELSI.
  | Chemical potential (Fermi level):    -5.51059816eV
  Writing Kohn-Sham eigenvalues.
  K-point:       1 at    0.000000    0.000000    0.000000 (in units of recip. lattice)

  State    Occupation    Eigenvalue [Ha]    Eigenvalue [eV]
      1       2.00000        -100.757497        -2741.75100
      2       2.00000        -100.756160        -2741.71460
      3       2.00000        -100.754667        -2741.67399
      4       2.00000        -100.754643        -2741.67333
      5       2.00000        -100.753554        -2741.64371
      6       2.00000        -100.752806        -2741.62334
      7       2.00000        -100.752416        -2741.61274
      8       2.00000        -100.750924        -2741.57214
      9       2.00000         -88.148655        -2398.64695
     10       2.00000         -88.147509        -2398.61575
     11       2.00000         -88.147465        -2398.61457
     12       2.00000         -88.147105        -2398.60478
     13       2.00000         -88.146868        -2398.59833
     14       2.00000         -88.144786        -2398.54165
     15       2.00000         -88.144168        -2398.52483
     16       2.00000         -88.143592        -2398.50916
     17       2.00000         -88.142632        -2398.48306
     18       2.00000         -88.142541        -2398.48057
     19       2.00000         -88.141568        -2398.45410
     20       2.00000         -88.141510        -2398.45252
     21       2.00000         -88.141451        -2398.45093
     22       2.00000         -88.141008        -2398.43885
     23       2.00000         -88.140918        -2398.43641
     24       2.00000         -88.140266        -2398.41866
     25       2.00000         -76.390156        -2078.68192
     26       2.00000         -76.386433        -2078.58061
     27       2.00000         -76.386038        -2078.56986
     28       2.00000         -76.385726        -2078.56136
     29       2.00000          -9.271486         -252.28998
[...]
    304       0.00000           0.002042            0.05556
    305       0.00000           0.004451            0.12111
    306       0.00000           0.006253            0.17014
    307       0.00000           0.007390            0.20108
    308       0.00000           0.010122            0.27544
    309       0.00000           0.012984            0.35330
    310       0.00000           0.014783            0.40226
    311       0.00000           0.016783            0.45668
    312       0.00000           0.017807            0.48456
    313       0.00000           0.019194            0.52230
    314       0.00000           0.021264            0.57864
    315       0.00000           0.022840            0.62150
    316       0.00000           0.026203            0.71301
    317       0.00000           0.026432            0.71925
    318       0.00000           0.028920            0.78696
    319       0.00000           0.031416            0.85488
    320       0.00000           0.032736            0.89079
    321       0.00000           0.036907            1.00428
    322       0.00000           0.037127            1.01027
    323       0.00000           0.039739            1.08136
    324       0.00000           0.039831            1.08387
    325       0.00000           0.041446            1.12782
    326       0.00000           0.043613            1.18676
    327       0.00000           0.045665            1.24262
    328       0.00000           0.047546            1.29379
    329       0.00000           0.048213            1.31195
    330       0.00000           0.050891            1.38480
    331       0.00000           0.052958            1.44107
    332       0.00000           0.055165            1.50111
    333       0.00000           0.057042            1.55219
    334       0.00000           0.061573            1.67550
    335       0.00000           0.063932            1.73968
    336       0.00000           0.064118            1.74474
    337       0.00000           0.066426            1.80754
    338       0.00000           0.068706            1.86958
    339       0.00000           0.069624            1.89456
    340       0.00000           0.069782            1.89887
    341       0.00000           0.071935            1.95744
    342       0.00000           0.074694            2.03252
    343       0.00000           0.076039            2.06913
    344       0.00000           0.076833            2.09074
    345       0.00000           0.081726            2.22388
    346       0.00000           0.083437            2.27044
    347       0.00000           0.085910            2.33772
    348       0.00000           0.087868            2.39102
    349       0.00000           0.089169            2.42640
    350       0.00000           0.094438            2.56980
    351       0.00000           0.095244            2.59171
    352       0.00000           0.098620            2.68360
    353       0.00000           0.103013            2.80311
    354       0.00000           0.105831            2.87980
    355       0.00000           0.109227            2.97223
    356       0.00000           0.113180            3.07979
    357       0.00000           0.117511            3.19763
    358       0.00000           0.120440            3.27733
    359       0.00000           0.122114            3.32289
    360       0.00000           0.124894            3.39855
    361       0.00000           0.127956            3.48185
    362       0.00000           0.130103            3.54029
    363       0.00000           0.135457            3.68598
    364       0.00000           0.136007            3.70093
    365       0.00000           0.136829            3.72331
    366       0.00000           0.140108            3.81253
    367       0.00000           0.143548            3.90614
    368       0.00000           0.147378            4.01037
    369       0.00000           0.149862            4.07795
    370       0.00000           0.154163            4.19499

  What follows are estimated values for band gap, HOMO, LUMO, etc.
  | They are estimated on a discrete k-point grid and not necessarily exact.
  | For converged numbers, create a DOS and/or band structure plot on a denser k-grid.

  Highest occupied state (VBM) at     -7.16860610 eV (relative to internal zero)
  | Occupation number:      2.00000000
  | K-point:      47 at    0.400000    0.600000    0.600000 (in units of recip. lattice)

  Lowest unoccupied state (CBM) at    -5.20991480 eV (relative to internal zero)
  | Occupation number:      0.00000001
  | K-point:       1 at    0.000000    0.000000    0.000000 (in units of recip. lattice)

  ESTIMATED overall HOMO-LUMO gap:      1.95869129 eV between HOMO at k-point 47 and LUMO at k-point 1
  | This appears to be an indirect band gap.
  | Smallest direct gap :      1.99389271 eV for k_point 1 at    0.000000    0.000000    0.000000 (in units of recip. lattice)
  The gap value is above 0.2 eV. Unless you are using a very sparse k-point grid,
  this system is most likely an insulator or a semiconductor.

  Self-consistency cycle converged.

  End self-consistency iteration #    20       :  max(cpu_time)    wall_clock(cpu1)
  | Time for this iteration                    :      369.577 s         369.557 s
  | Charge density & force component update    :      314.890 s         314.871 s
  | Density mixing                             :        0.021 s           0.021 s
  | Hartree multipole update                   :        0.014 s           0.014 s
  | Hartree multipole summation                :       20.785 s          20.785 s
  | Integration                                :       15.420 s          15.418 s
  | Solution of K.-S. eqns.                    :       18.441 s          18.441 s
  | Total energy evaluation                    :        0.002 s           0.003 s

  Partial memory accounting:
  | Current value for overall tracked memory usage on task 0  :         173.349 MB
  | Peak value for overall tracked memory usage on task 0     :         356.613 MB after allocating eigenvalue_tmp
  | Largest tracked array allocation on task 0 so far         :          64.061 MB  when allocating overlap_matrix
  Note:  These values currently only include a subset of arrays which are explicitly tracked.
  The "true" memory usage will be greater.
------------------------------------------------------------
  |------------------------------------------
  | Final ELSI Output
  |------------------------------------------
  | Number of basis functions :         1692
  | Number of electrons       :        512.0
  | Number of states          :          370
  | Solver                    :         ELPA
  | Parallel mode             :  SINGLE_PROC
  | Matrix format             :  BLACS_DENSE
  |------------------------------------------
  | ELSI Project (c)  elsi-interchange.org
  |------------------------------------------
  Removing unitary transformations (pure translations, rotations) from forces on atoms.
  Atomic forces before filtering:
  | Net force on center of mass :   0.552699E-03  0.341857E-02 -0.275191E-03 eV/A
  Atomic forces after filtering:
  | Net force on center of mass :  -0.267609E-15 -0.133805E-15 -0.100353E-15 eV/A

  Energy and forces in a compact form:
  | Total energy uncorrected      :         -0.314749092221999E+06 eV
  | Total energy corrected        :         -0.314749092221999E+06 eV  <-- do not rely on this value for anything but (periodic) metals
  | Electronic free energy        :         -0.314749092221999E+06 eV
  Total atomic forces (unitary forces cleaned) [eV/Ang]:
  |   1         -0.281902978487622E-01         -0.184535602576137E-01          0.145778579660741E-01
  |   2          0.289266037708562E-03          0.228743460859731E-01         -0.368278470869017E-01
  |   3          0.427722427162801E-01         -0.146917989089877E-01         -0.333419872800728E-01
  |   4          0.130795346178303E-01         -0.154402233011564E-02          0.272134495600585E-01
  |   5         -0.235409773002523E-01          0.412935292445446E-01         -0.352890304901099E-01
  |   6          0.271853112631781E-01          0.686366676051678E-02          0.432761527525575E-01
  |   7         -0.342274223265943E-01         -0.179226582811957E-01          0.297339728613404E-01
  |   8         -0.282247255363088E-02         -0.472349771360379E-01          0.423679011503248E-01
  |   9          0.671471044816196E-02         -0.287487768071480E-01         -0.226996945865828E-01
  |  10          0.110460686352373E-01          0.766561285500893E-01          0.194286349599683E-01
  |  11          0.152144180002034E-01         -0.454180050728044E-01          0.111965625575798E-01
  |  12          0.605185190955611E-02          0.218495397684662E-01          0.140598942659688E-01
  |  13         -0.321055507590028E-01         -0.151307830796574E-01          0.355800599016706E-02
  |  14         -0.520190462921228E-01          0.173715900643263E-01         -0.339742359923967E-01
  |  15          0.690827765761333E-01          0.223164156966742E-01          0.277984640521370E-02
  |  16          0.260631589310032E-01          0.144943165804773E-01         -0.486022048784408E-01
  |  17         -0.382207912488935E-01          0.239000481615636E-01         -0.487114549254889E-02
  |  18          0.245687101768347E-01         -0.246197697651132E-01         -0.246305472052299E-01
  |  19          0.335662016305024E-01          0.278240032076396E-01          0.163613319055450E-01
  |  20         -0.287655199676082E-01         -0.133923620100018E-02         -0.209937164213079E-01
  |  21          0.251341524925550E-02         -0.177282588181002E-01          0.116914933581758E-01
  |  22         -0.223984549547753E-01          0.297967050484476E-01          0.406953363208226E-01
  |  23         -0.929380897602040E-02          0.665594031424894E-03         -0.436072750175786E-01
  |  24          0.168282783305041E-01         -0.311720171243149E-01         -0.357359413299733E-01
  |  25         -0.241422557943314E+00          0.310773267628643E+00         -0.345676049432860E+00
  |  26          0.324740989521054E+00         -0.269116745479555E+00         -0.246896892770761E+00
  |  27          0.277757113769757E+00          0.274100967594453E+00          0.292409170000589E+00
  |  28         -0.333359733913558E+00         -0.334066930355489E+00          0.244950413443759E+00
  |  29         -0.265732407770745E+00         -0.254753348706638E+00          0.339316391291529E+00
  |  30         -0.228900441413140E+00          0.356779286775942E+00         -0.376105125618961E+00
  |  31          0.267305548019781E+00          0.280699165832421E+00          0.281365465607046E+00
  |  32          0.267867676943963E+00         -0.400378687591575E+00         -0.284210381737326E+00
  |  33          0.285900092689093E+00         -0.234151333277658E+00         -0.290904072675825E+00
  |  34         -0.347019289572790E+00         -0.307269776276502E+00          0.330377719205351E+00
  |  35          0.345266965809248E+00          0.324914951856245E+00          0.315377177731102E+00
  |  36         -0.347607608884887E+00          0.187757359483987E+00         -0.304923917932695E+00
  |  37         -0.223021441414768E+00         -0.409671553432159E+00          0.366398384420270E+00
  |  38         -0.412623216330779E+00          0.200303015325854E+00         -0.377943584068001E+00
  |  39          0.192534398064727E+00          0.429676984803203E+00          0.389239744847719E+00
  |  40          0.398307633749769E+00         -0.194762073599777E+00         -0.323812872699152E+00
  |  41          0.951817045704988E-02         -0.310713021137485E-01          0.217685367023682E-02
  |  42          0.110369164761274E-01          0.286719249649076E-01          0.838843266831686E-02
  |  43         -0.650377126320232E-01         -0.373899465618532E-01         -0.234156477499395E-01
  |  44          0.407259577680721E-01          0.211500897796603E-01         -0.340683232874623E-01
  |  45         -0.117086154100781E-01          0.274859701216537E-01          0.401970071678924E-01
  |  46          0.117182032671811E-01         -0.107827581299613E-01          0.285892395412776E-01
  |  47          0.675389905761555E-01         -0.136064000160812E-01         -0.287501271711432E-01
  |  48         -0.471772341206222E-01          0.128058519559751E-01          0.615541812763841E-01

  ------------------------------------ 
  Start decomposition of the XC Energy 
  ------------------------------------ 
  X and C from original XC functional choice 
  Hartree-Fock Energy :          0.000000000 Ha              0.000000000 eV
  X Energy            :       -744.747848935 Ha         -20265.620072919 eV
  C Energy            :        -19.226252643 Ha           -523.172953162 eV
  Total XC Energy     :       -763.974101578 Ha         -20788.793026080 eV
  ------------------------------------ 
  LDA X and C from self-consistent density 
  X Energy LDA        :       -689.251307727 Ha         -18755.482351693 eV
  C Energy LDA        :        -38.769648099 Ha          -1054.975801341 eV
  ------------------------------------ 
  End decomposition of the XC Energy 
  ------------------------------------ 

------------------------------------------------------------

------------------------------------------------------------------------------
  Final output of selected total energy values:

  The following output summarizes some interesting total energy values
  at the end of a run (AFTER all relaxation, molecular dynamics, etc.).

  | Total energy of the DFT / Hartree-Fock s.c.f. calculation      :        -314749.092221999 eV
  | Final zero-broadening corrected energy (caution - metals only) :        -314749.092221999 eV
  | For reference only, the value of 1 Hartree used in FHI-aims is :             27.211384500 eV

  Before relying on these values, please be sure to understand exactly which
  total energy value is referred to by a given number. Different objects may
  all carry the same name 'total energy'. Definitions:

  Total energy of the DFT / Hartree-Fock s.c.f. calculation:
  | Note that this energy does not include ANY quantities calculated after the
  | s.c.f. cycle, in particular not ANY RPA, MP2, etc. many-body perturbation terms.

  Final zero-broadening corrected energy:
  | For metallic systems only, a broadening of the occupation numbers at the Fermi
  | level can be extrapolated back to zero broadening by an electron-gas inspired
  | formula. For all systems that are not real metals, this value can be
  | meaningless and should be avoided.

------------------------------------------------------------------------------
  Methods described in the following list of references were used in this FHI-aims run.
  If you publish the results, please make sure to cite these reference if they apply.
  FHI-aims is an academic code, and for our developers (often, Ph.D. students
  and postdocs), scientific credit in the community is essential.
  Thank you for helping us!

  For any use of FHI-aims, please cite:

    Volker Blum, Ralf Gehrke, Felix Hanke, Paula Havu, Ville Havu,
    Xinguo Ren, Karsten Reuter, and Matthias Scheffler
    'Ab initio molecular simulations with numeric atom-centered orbitals'
    Computer Physics Communications 180, 2175-2196 (2009)
    http://dx.doi.org/10.1016/j.cpc.2009.06.022


  The provided symmetry information was generated with SPGlib:

    Atsushi Togo, Yusuke Seto, Dimitar Pashov
    SPGlib 1.7.3 obtained from http://spglib.sourceforge.net
    Copyright (C) 2008 Atsushi Togo


  The scalable eigensolver library ELPA was used in your run.
  ELPA is essential especially for large systems on hundreds or thousands of CPUs.
  For ELPA, please cite:

    Andreas Marek, Volker Blum, Rainer Johanni, Ville Havu, Bruno Lang,
    Thomas Auckenthaler, Alexander Heinecke, Hans-Joachim Bungartz, and Hermann Lederer,
    'The ELPA Library - Scalable Parallel Eigenvalue Solutions
    for Electronic Structure Theory and Computational Science'
    The Journal of Physics: Condensed Matter 26, 213201 (2014).
    http://dx.doi.org/10.1088/0953-8984/26/21/213201


  The ELSI infrastructure was used in your run to solve the Kohn-Sham electronic structure.
  Please check out http://elsi-interchange.org to learn more.
  If scalability is important for your project, please acknowledge ELSI by citing:

    V. W-z. Yu, F. Corsetti, A. Garcia, W. P. Huhn, M. Jacquelin, W. Jia,
    B. Lange, L. Lin, J. Lu, W. Mi, A. Seifitokaldani, A. Vazquez-Mayagoitia,
    C. Yang, H. Yang, and V. Blum
    'ELSI: A unified software interface for Kohn-Sham electronic structure solvers'
    Computer Physics Communications 222, 267-285 (2018).
    http://dx.doi.org/10.1016/j.cpc.2017.09.007


  For the real-space grid partitioning and parallelization used in this calculation, please cite:

    Ville Havu, Volker Blum, Paula Havu, and Matthias Scheffler,
    'Efficient O(N) integration for all-electron electronic structure calculation'
    'using numerically tabulated basis functions'
    Journal of Computational Physics 228, 8367-8379 (2009).
    http://dx.doi.org/10.1016/j.jcp.2009.08.008

  Of course, there are many other important community references, e.g., those cited in the
  above references. Our list is limited to references that describe implementations in the
  FHI-aims code. The reason is purely practical (length of this list) - please credit others as well.

------------------------------------------------------------
          Leaving FHI-aims.
          Date     :  20220324, Time     :  043842.370

          Computational steps:
          | Number of self-consistency cycles          :           20
          | Number of SCF (re)initializations          :            1

          Detailed time accounting                     :  max(cpu_time)    wall_clock(cpu1)
          | Total time                                 :     1976.622 s        1976.650 s
          | Preparation time                           :        0.558 s           0.559 s
          | Boundary condition initalization           :        0.389 s           0.389 s
          | Grid partitioning                          :        1.413 s           1.413 s
          | Preloading free-atom quantities on grid    :        0.049 s           0.049 s
          | Free-atom superposition energy             :        0.588 s           0.588 s
          | Total time for integrations                :      337.324 s         337.299 s
          | Total time for solution of K.-S. equations :      399.438 s         399.416 s
          | Total time for density & force components  :     1017.314 s        1017.252 s
          | Total time for mixing & preconditioning    :       63.798 s          63.797 s
          | Total time for Hartree multipole update    :        0.279 s           0.282 s
          | Total time for Hartree multipole sum       :      150.339 s         150.338 s
          | Total time for total energy evaluation     :        0.019 s           0.020 s

          Partial memory accounting:
          | Residual value for overall tracked memory usage across tasks :           0.000 MB (should be 0.000 MB)
          | Peak values for overall tracked memory usage (after allocating eigenvalue_tmp):
          |   Minimum:      356.613 MB (on task  1)
          |   Maximum:      366.630 MB (on task  2)
          |   Average:      358.116 MB
          | Largest tracked array allocation (overlap_matrix):
          |   Minimum:       64.061 MB (on task  1)
          |   Maximum:       64.061 MB (on task  1)
          |   Average:       64.061 MB
          Note:  These values currently only include a subset of arrays which are explicitly tracked.
          The "true" memory usage will be greater.

          Have a nice day.
------------------------------------------------------------
