  MPI-parallelism will be employed.
------------------------------------------------------------
          Invoking FHI-aims ...
          Version 171221_1
          Compiled on 2020/11/22 at 19:48:33 on host core401.

          When using FHI-aims, please cite the following reference:

          Volker Blum, Ralf Gehrke, Felix Hanke, Paula Havu,
          Ville Havu, Xinguo Ren, Karsten Reuter, and Matthias Scheffler,
          'Ab Initio Molecular Simulations with Numeric Atom-Centered Orbitals',
          Computer Physics Communications 180, 2175-2196 (2009)

          For any questions about FHI-aims, please visit the aimsclub website
          with its forums and wiki. Contributions to both the forums and the
          wiki are warmly encouraged - they are for you, and everyone is welcome there.

------------------------------------------------------------



  Date     :  20220223, Time     :  183358.421
  Time zero on CPU 1             :   0.589580000000000E-01  s.
  Internal wall clock time zero  :           414873238.421  s.

  FHI-aims created a unique identifier for this run for later identification
  aims_uuid : 93748302-5E0D-4585-A81D-DE73D1D9F590

  Using        1 parallel tasks.
  Task        0 on host core401 reporting.

  Performing system and environment tests:
  *** Environment variable OMP_NUM_THREADS is not set
  *** For performance reasons you might want to set it to 1
  | Maximum stacksize for task 0: unlimited
  | Current stacksize for task 0: unlimited
  | Checking for scalapack...
  | Testing pdtran()...
  | All pdtran() tests passed.

  Obtaining array dimensions for all initial allocations:
  
  -----------------------------------------------------------------------
  Parsing control.in (first pass over file, find array dimensions only).
  The contents of control.in will be repeated verbatim below
  unless switched off by setting 'verbatim_writeout .false.' .
  in the first line of control.in .
  -----------------------------------------------------------------------
  
  #===============================================================================
  # FHI-aims file: ./control.in
  # Created using the Atomic Simulation Environment (ASE)
  # Wed Mar 24 12:41:28 2021
  #===============================================================================
  xc                                 pbe
  # relax_geometry                     bfgs 1e-4
  sc_accuracy_etot                   1e-06
  sc_accuracy_eev                    0.001
  sc_accuracy_rho                    1e-06
  sc_accuracy_forces                 0.0001
  many_body_dispersion
  k_grid                             3 3 3
  
    #output band 0.0   0.0   0.0   0.5   0.5   0.0    10  Gamma M
    #output band 0.5   0.5   0.0   0.5   0.5   0.5    10  M     R
    #output band 0.5   0.5   0.5   0.0   0.5   0.0    10  R     X
  
    #output  dos              -18. 10. 200 0.1
    #output  species_proj_dos -18. 10. 200 0.1
  
  #===============================================================================
  
  ################################################################################
  #
  #  FHI-aims code project
  # Volker Blum, Fritz Haber Institute Berlin, 2009
  #
  #  Suggested "tight" defaults for Li atom (to be pasted into control.in file)
  #
  #  2016/03/22: Increased cutoff radius to 5.0 AA (Xinguo Ren, Aug 15, 2015)
  #
  ################################################################################
    species        Li
  #     global species definitions
      nucleus             3
      mass                6.941
  #
      l_hartree           6
  #
      cut_pot             5.0  2.0  1.0
      basis_dep_cutoff    1e-4
  #
      radial_base         29 7.0
      radial_multiplier   2
      angular_grids       specified
        division   0.4484  110
        division   0.5659  194
        division   0.6315  302
        division   0.6662  434
  #      division   0.8186  590
  #      division   0.9037  770
  #      division   6.2760  974
  #      outer_grid   974
        outer_grid  434
  ################################################################################
  #
  #  Definition of "minimal" basis
  #
  ################################################################################
  #     valence basis states
      valence      2  s   1.
  #     ion occupancy
      ion_occ      1  s   2.
  ################################################################################
  #
  #  Suggested additional basis functions. For production calculations,
  #  uncomment them one after another (the most important basis functions are
  #  listed first).
  #
  #  Constructed for dimers: 1.80 A, 2.25 A, 2.75 A, 3.50 A, 4.50 A
  #
  ################################################################################
  #  "First tier" - improvements: -189.23 meV to -6.35 meV
       hydro 2 p 1.6
       hydro 2 s 2
       hydro 3 d 2.6
  #  "Second tier" - improvements: -4.69 meV to -0.41 meV
       hydro 3 p 4.6
       hydro 2 p 1.8
       hydro 3 s 6.2
       hydro 4 d 4.7
       hydro 4 f 4.1
  #  "Third tier" - improvements: -0.20 meV to -0.15 meV
  #     hydro 4 d 0.95
  #     hydro 3 p 6.2
  #     hydro 3 s 1.7
  #  Further functions, listed for completeness
  #     VB: The following functions are only listed for completeness; test very
  #         carefully before any kind of production use. From the point of view
  #         of the basis construction, their main role is to fill up space,
  #         and they are solely determined by the location of the cutoff potential.
  #     hydro 3 p 0.1  # -0.15 meV
  #     hydro 4 d 5    # -0.12 meV
  #     hydro 4 f 0.1  # -0.14 meV
  #     hydro 5 g 0.1  # -0.06 meV
  
  
  ################################################################################
  #
  # For methods that use the localized form of the "resolution of identity" for
  # the two-electron Coulomb operator (RI_method LVL), particularly Hartree-Fock and
  # hybrid density functional calculations, the highest accuracy can be obtained by
  # uncommenting the line beginning with "for_aux"  below, thus adding an extra g radial
  # function to the construction of the product basis set for the expansion.
  # See Ref. New J. Phys. 17, 093020 (2015) for more information, particularly Figs. 1 and 6.
  #
  ################################################################################
  #
  # for_aux hydro 5 g 6.0
  ################################################################################
  #
  #  FHI-aims code project
  # Volker Blum, Fritz Haber Institute Berlin, 2010
  #
  #  Suggested "tight" defaults for P atom (to be pasted into control.in file)
  #
  #  Revised Jan 04, 2011, following tests (SiC) done by Lydia Nemec:
  #     d function of tier 2 now enabled by default.
  #
  ################################################################################
    species        P
  #     global species definitions
      nucleus             15
      mass                30.973762
  #
      l_hartree           6
  #
      cut_pot             4.0          2.0  1.0
      basis_dep_cutoff    1e-4
  #
      radial_base         43 7.0
      radial_multiplier   2
      angular_grids       specified
        division   0.2995   50
        division   0.5998  110
        division   0.9240  194
        division   1.0921  302
        division   1.2863  434
  #      division   1.3165  590
  #      division   1.4113  770
  #      division   1.5128  974
  #      division   2.4980 1202
        outer_grid  434
  ################################################################################
  #
  #  Definition of "minimal" basis
  #
  ################################################################################
  #     valence basis states
      valence      3  s   2.
      valence      3  p   3.
  #     ion occupancy
      ion_occ      3  s   1.
      ion_occ      3  p   2.
  ################################################################################
  #
  #  Suggested additional basis functions. For production calculations,
  #  uncomment them one after another (the most important basis functions are
  #  listed first).
  #
  #  Constructed for dimers: 1.625 A, 1.875 A, 2.5 A, 3.25 A, 4.0 A
  #
  ################################################################################
  #  "First tier" - improvements: -726.20 meV to -35.91 meV
       ionic 3 d auto
       ionic 3 p auto
       hydro 4 f 6.2
       hydro 5 g 8.6
       ionic 3 s auto
  #  "Second tier" - improvements: -16.02 meV to -1.71 meV
       hydro 4 d 6.2
  #     hydro 4 p 9.2
  #     hydro 5 f 9.8
  #     hydro 1 s 0.7
  #     hydro 5 g 13.2
  #  "Third tier" - improvements: -1.82 meV to -0.20 meV
  #     hydro 3 p 2.5
  #     hydro 4 d 6.4
  #     hydro 5 f 11.2
  #     hydro 2 s 1.5
  #  "Fourth tier" - improvements: -0.91 meV to -0.17 meV
  #     hydro 3 d 16.8
  #     hydro 5 g 18
  #     hydro 4 p 4.5
  #     hydro 3 s 2.1
  #  Further basis functions that fell out of the optimization - < -0.09 meV
  #     hydro 4 p 10.4
  #     hydro 4 d 17.6
  #     hydro 4 s 11.2
  ################################################################################
  #
  # For methods that use the localized form of the "resolution of identity" for
  # the two-electron Coulomb operator (RI_method LVL), particularly Hartree-Fock and
  # hybrid density functional calculations, the highest accuracy can be obtained by
  # uncommenting the line beginning with "for_aux"  below, thus adding an extra g radial
  # function to the construction of the product basis set for the expansion.
  # See Ref. New J. Phys. 17, 093020 (2015) for more information, particularly Figs. 1 and 6.
  #
  ################################################################################
  #
  # for_aux hydro 5 g 6.0
  ################################################################################
  #
  #  FHI-aims code project
  # Volker Blum, Fritz Haber Institute Berlin, 2009
  #
  #  Suggested "tight" defaults for S atom (to be pasted into control.in file)
  #
  #  Revised Jan 04, 2011, following tests (SiC) done by Lydia Nemec:
  #     d and g functions of tier 2 now enabled by default.
  #
  ################################################################################
    species        S
  #     global species definitions
      nucleus             16
      mass                32.065
  #
      l_hartree           6
  #
      cut_pot             4.0          2.0  1.0
      basis_dep_cutoff    1e-4
  #
      radial_base         44 7.0
      radial_multiplier   2
      angular_grids       specified
        division   0.4665  110
        division   0.5810  194
        division   0.7139  302
        division   0.8274  434
  #      division   0.9105  590
  #      division   1.0975  770
  #      division   1.2028  974
  #      outer_grid  974
        outer_grid  434
  ################################################################################
  #
  #  Definition of "minimal" basis
  #
  ################################################################################
  #     valence basis states
      valence      3  s   2.
      valence      3  p   4.
  #     ion occupancy
      ion_occ      3  s   1.
      ion_occ      3  p   3.
  ################################################################################
  #
  #  Suggested additional basis functions. For production calculations,
  #  uncomment them one after another (the most important basis functions are
  #  listed first).
  #
  #  Constructed for dimers: 1.6 A, 1.9 A, 2.5 A, 3.25 A, 4.0 A
  #
  ################################################################################
  #  "First tier" - improvements: -652.81 meV to -45.53 meV
       ionic 3 d auto
       hydro 2 p 1.8
       hydro 4 f 7
       ionic 3 s auto
  #  "Second tier" - improvements: -30.20 meV to -1.74 meV
       hydro 4 d 6.2
       hydro 5 g 10.8
  #     hydro 4 p 4.9
  #     hydro 5 f 10
  #     hydro 1 s 0.8
  #  "Third tier" - improvements: -1.04 meV to -0.20 meV
  #     hydro 3 d 3.9
  #     hydro 3 d 2.7
  #     hydro 5 g 12
  #     hydro 4 p 10.4
  #     hydro 5 f 12.4
  #     hydro 2 s 1.9
  #  "Fourth tier" - improvements: -0.35 meV to -0.06 meV
  #     hydro 4 d 10.4
  #     hydro 4 p 7.2
  #     hydro 4 d 10
  #     hydro 5 g 19.2
  #     hydro 4 s 12
  
  ################################################################################
  #
  # For methods that use the localized form of the "resolution of identity" for
  # the two-electron Coulomb operator (RI_method LVL), particularly Hartree-Fock and
  # hybrid density functional calculations, the highest accuracy can be obtained by
  # uncommenting the line beginning with "for_aux"  below, thus adding an extra g radial
  # function to the construction of the product basis set for the expansion.
  # See Ref. New J. Phys. 17, 093020 (2015) for more information, particularly Figs. 1 and 6.
  #
  ################################################################################
  #
  # for_aux hydro 5 g 6.0
  ################################################################################
  #
  #  FHI-aims code project
  # Volker Blum, Fritz Haber Institute Berlin, 2009
  #
  #  Suggested "tight" defaults for Cl atom (to be pasted into control.in file)
  #
  #  Revised Jan 04, 2011, following tests (SiC) done by Lydia Nemec:
  #     d function of tier 2 now enabled by default.
  #
  ################################################################################
    species        Cl
  #     global species definitions
      nucleus             17
      mass                35.453
  #
      l_hartree           6
  #
      cut_pot             4.0          2.0  1.0
      basis_dep_cutoff    1e-4
  #
      radial_base         45 7.0
      radial_multiplier   2
      angular_grids       specified
        division   0.4412  110
        division   0.5489  194
        division   0.6734  302
        division   0.7794  434
  #      division   0.9402  590
  #      division   1.0779  770
  #      division   1.1792  974
  #      outer_grid  974
        outer_grid  434
  ################################################################################
  #
  #  Definition of "minimal" basis
  #
  ################################################################################
  #     valence basis states
      valence      3  s   2.
      valence      3  p   5.
  #     ion occupancy
      ion_occ      3  s   1.
      ion_occ      3  p   4.
  ################################################################################
  #
  #  Suggested additional basis functions. For production calculations,
  #  uncomment them one after another (the most important basis functions are
  #  listed first).
  #
  #  Constructed for dimers: 1.65 A, 2.0 A, 2.5 A, 3.25 A, 4.0 A
  #
  ################################################################################
  #  "First tier" - improvements: -429.57 meV to -15.03 meV
       ionic 3 d auto
       hydro 2 p 1.9
       hydro 4 f 7.4
       ionic 3 s auto
       hydro 5 g 10.4
  #  "Second tier" - improvements: -7.84 meV to -0.48 meV
       hydro 3 d 3.3
  #     hydro 5 f 9.8
  #     hydro 1 s 0.75
  #     hydro 5 g 11.2
  #     hydro 4 p 10.4
  #  "Third tier" - improvements: -1.00 meV to -0.12 meV
  #     hydro 4 d 12.8
  #     hydro 4 f 4.6
  #     hydro 4 d 10.8
  #     hydro 2 s 1.8
  #     hydro 3 p 3
  #  Further functions that fell out - improvements: -0.10 meV and below
  #     hydro 5 f 14.4
  #     hydro 4 s 12.8
  #     hydro 3 d 11.6
  #     hydro 4 s 4.1
  ################################################################################
  #
  # For methods that use the localized form of the "resolution of identity" for
  # the two-electron Coulomb operator (RI_method LVL), particularly Hartree-Fock and
  # hybrid density functional calculations, the highest accuracy can be obtained by
  # uncommenting the line beginning with "for_aux"  below, thus adding an extra g radial
  # function to the construction of the product basis set for the expansion.
  # See Ref. New J. Phys. 17, 093020 (2015) for more information, particularly Figs. 1 and 6.
  #
  ################################################################################
  #
  # for_aux hydro 5 g 6.0
  
  
  -----------------------------------------------------------------------
  Completed first pass over input file control.in .
  -----------------------------------------------------------------------
  
  
  -----------------------------------------------------------------------
  Parsing geometry.in (first pass over file, find array dimensions only).
  The contents of geometry.in will be repeated verbatim below
  unless switched off by setting 'verbatim_writeout .false.' .
  in the first line of geometry.in .
  -----------------------------------------------------------------------
  
  #=======================================================
  # FHI-aims file: ./geo/geometry.in.11
  # Created using the Atomic Simulation Environment (ASE)
  # Tue Feb 22 23:54:07 2022
  #=======================================================
  lattice_vector 7.7048249044000006 0.0000000000000000 0.0000000000000000
  lattice_vector 3.8524124522000012 6.6725740989214088 0.0000000000000000
  lattice_vector 3.8524124522000012 2.2241913663071369 6.2909631910893928
  atom 2.1042878441153978 1.2149111532524821 3.0000785633090472 Li
  atom 5.6005370602846032 3.2334715793617912 0.1454030322356492 Li
  atom 5.6005370602846032 1.2149111532524821 3.0000785633090472 Li
  atom 2.1042878441153978 3.2334715793617912 0.1454030322356492 Li
  atom 3.8524124522000003 0.2056309401978274 0.1454030322356492 Li
  atom 3.8524124522000012 4.2427517924164455 3.0000785633090472 Li
  atom 7.7048249044000015 4.4483827326142729 3.1454815955446964 P
  atom 5.9246661769551228 5.4761578086210081 3.8722283213235782 S
  atom 7.7048248658758780 4.4483827103723605 0.9652413552984189 S
  atom 7.7048248658758780 2.3928325138750610 3.8722283213235782 S
  atom 9.4849835547966315 5.4761578086210081 3.8722283213235782 S
  atom 3.8524124522000007 2.2241913663071364 1.5727407977723482 S
  atom 0.0000000000000000 0.0000000000000000 0.0000000000000000 Cl
  
  -----------------------------------------------------------------------
  Completed first pass over input file geometry.in .
  -----------------------------------------------------------------------
  

  Basic array size parameters:
  | Number of species                 :        4
  | Number of atoms                   :       13
  | Number of lattice vectors         :        3
  | Max. basis fn. angular momentum   :        4
  | Max. atomic/ionic basis occupied n:        3
  | Max. number of basis fn. types    :        3
  | Max. radial fns per species/type  :        8
  | Max. logarithmic grid size        :     1362
  | Max. radial integration grid size :       91
  | Max. angular integration grid size:      434
  | Max. angular grid division number :        8
  | Radial grid for Hartree potential :     1362
  | Number of spin channels           :        1

------------------------------------------------------------
          Reading file control.in.
------------------------------------------------------------
  XC: Using PBE gradient-corrected functionals.
  Convergence accuracy of total energy:  0.1000E-05
  Convergence accuracy of sum of eigenvalues:  0.1000E-02
  Convergence accuracy of self-consistent charge density:  0.1000E-05
  Convergence accuracy of forces:  0.1000E-03
  Using the default MBD implementation with analytical forces
  Found k-point grid:         3         3         3
 
  Reading configuration options for species Li                  .
  | Found nuclear charge :   3.0000
  | Found atomic mass :    6.94100000000000      amu
  | Found l_max for Hartree potential  :   6
  | Found cutoff potl. onset [A], width [A], scale factor :    5.00000    2.00000    1.00000
  | Threshold for basis-dependent cutoff potential is   0.100000E-03
  | Found data for basic radial integration grid :    29 points, outermost radius =    7.000 A
  | Found multiplier for basic radial grid :   2
  | Found angular grid specification: user-specified.
  | Specified grid contains     5 separate shells.
  | Check grid settings after all constraints further below.
  | Found free-atom valence shell :  2 s   1.000
  | Found free-ion valence shell :  1 s   2.000
  | Found hydrogenic basis function :  2 p   1.600
  | Found hydrogenic basis function :  2 s   2.000
  | Found hydrogenic basis function :  3 d   2.600
  | Found hydrogenic basis function :  3 p   4.600
  | Found hydrogenic basis function :  2 p   1.800
  | Found hydrogenic basis function :  3 s   6.200
  | Found hydrogenic basis function :  4 d   4.700
  | Found hydrogenic basis function :  4 f   4.100
  Species Li                  : Missing cutoff potential type.
  Defaulting to exp(1/x)/(1-x)^2 type cutoff potential.
  Species Li: No 'logarithmic' tag. Using default grid for free atom:
  | Default logarithmic grid data [bohr] : 0.1000E-03 0.1000E+03 0.1012E+01
  Species Li: On-site basis accuracy parameter (for Gram-Schmidt orthonormalisation) not specified.
  Using default value basis_acc =  0.1000000E-03.
  Species Li                  : Using default innermost maximum threshold i_radial=  2 for radial functions.
  Species Li                  : Default cutoff onset for free atom density etc. : 0.50000000E+01 AA.
  Species Li                  : Basic radial grid will be enhanced according to radial_multiplier =   2, to contain    59 grid points.
 
  Reading configuration options for species P                   .
  | Found nuclear charge :  15.0000
  | Found atomic mass :    30.9737620000000      amu
  | Found l_max for Hartree potential  :   6
  | Found cutoff potl. onset [A], width [A], scale factor :    4.00000    2.00000    1.00000
  | Threshold for basis-dependent cutoff potential is   0.100000E-03
  | Found data for basic radial integration grid :    43 points, outermost radius =    7.000 A
  | Found multiplier for basic radial grid :   2
  | Found angular grid specification: user-specified.
  | Specified grid contains     6 separate shells.
  | Check grid settings after all constraints further below.
  | Found free-atom valence shell :  3 s   2.000
  | Found free-atom valence shell :  3 p   3.000
  | Found free-ion valence shell :  3 s   1.000
  | Found free-ion valence shell :  3 p   2.000
  | Found ionic basis function :  3 d , default cutoff radius.
  | Found ionic basis function :  3 p , default cutoff radius.
  | Found hydrogenic basis function :  4 f   6.200
  | Found hydrogenic basis function :  5 g   8.600
  | Found ionic basis function :  3 s , default cutoff radius.
  | Found hydrogenic basis function :  4 d   6.200
  Species P                   : Missing cutoff potential type.
  Defaulting to exp(1/x)/(1-x)^2 type cutoff potential.
  Species P : No 'logarithmic' tag. Using default grid for free atom:
  | Default logarithmic grid data [bohr] : 0.1000E-03 0.1000E+03 0.1012E+01
  | Will include ionic basis functions of  2.0-fold positive P                    ion.
  Species P : On-site basis accuracy parameter (for Gram-Schmidt orthonormalisation) not specified.
  Using default value basis_acc =  0.1000000E-03.
  Species P                   : Using default innermost maximum threshold i_radial=  2 for radial functions.
  Species P                   : Default cutoff onset for free atom density etc. : 0.40000000E+01 AA.
  Species P                   : Basic radial grid will be enhanced according to radial_multiplier =   2, to contain    87 grid points.
 
  Reading configuration options for species S                   .
  | Found nuclear charge :  16.0000
  | Found atomic mass :    32.0650000000000      amu
  | Found l_max for Hartree potential  :   6
  | Found cutoff potl. onset [A], width [A], scale factor :    4.00000    2.00000    1.00000
  | Threshold for basis-dependent cutoff potential is   0.100000E-03
  | Found data for basic radial integration grid :    44 points, outermost radius =    7.000 A
  | Found multiplier for basic radial grid :   2
  | Found angular grid specification: user-specified.
  | Specified grid contains     5 separate shells.
  | Check grid settings after all constraints further below.
  | Found free-atom valence shell :  3 s   2.000
  | Found free-atom valence shell :  3 p   4.000
  | Found free-ion valence shell :  3 s   1.000
  | Found free-ion valence shell :  3 p   3.000
  | Found ionic basis function :  3 d , default cutoff radius.
  | Found hydrogenic basis function :  2 p   1.800
  | Found hydrogenic basis function :  4 f   7.000
  | Found ionic basis function :  3 s , default cutoff radius.
  | Found hydrogenic basis function :  4 d   6.200
  | Found hydrogenic basis function :  5 g  10.800
  Species S                   : Missing cutoff potential type.
  Defaulting to exp(1/x)/(1-x)^2 type cutoff potential.
  Species S : No 'logarithmic' tag. Using default grid for free atom:
  | Default logarithmic grid data [bohr] : 0.1000E-03 0.1000E+03 0.1012E+01
  | Will include ionic basis functions of  2.0-fold positive S                    ion.
  Species S : On-site basis accuracy parameter (for Gram-Schmidt orthonormalisation) not specified.
  Using default value basis_acc =  0.1000000E-03.
  Species S                   : Using default innermost maximum threshold i_radial=  2 for radial functions.
  Species S                   : Default cutoff onset for free atom density etc. : 0.40000000E+01 AA.
  Species S                   : Basic radial grid will be enhanced according to radial_multiplier =   2, to contain    89 grid points.
 
  Reading configuration options for species Cl                  .
  | Found nuclear charge :  17.0000
  | Found atomic mass :    35.4530000000000      amu
  | Found l_max for Hartree potential  :   6
  | Found cutoff potl. onset [A], width [A], scale factor :    4.00000    2.00000    1.00000
  | Threshold for basis-dependent cutoff potential is   0.100000E-03
  | Found data for basic radial integration grid :    45 points, outermost radius =    7.000 A
  | Found multiplier for basic radial grid :   2
  | Found angular grid specification: user-specified.
  | Specified grid contains     5 separate shells.
  | Check grid settings after all constraints further below.
  | Found free-atom valence shell :  3 s   2.000
  | Found free-atom valence shell :  3 p   5.000
  | Found free-ion valence shell :  3 s   1.000
  | Found free-ion valence shell :  3 p   4.000
  | Found ionic basis function :  3 d , default cutoff radius.
  | Found hydrogenic basis function :  2 p   1.900
  | Found hydrogenic basis function :  4 f   7.400
  | Found ionic basis function :  3 s , default cutoff radius.
  | Found hydrogenic basis function :  5 g  10.400
  | Found hydrogenic basis function :  3 d   3.300
  Species Cl                  : Missing cutoff potential type.
  Defaulting to exp(1/x)/(1-x)^2 type cutoff potential.
  Species Cl: No 'logarithmic' tag. Using default grid for free atom:
  | Default logarithmic grid data [bohr] : 0.1000E-03 0.1000E+03 0.1012E+01
  | Will include ionic basis functions of  2.0-fold positive Cl                   ion.
  Species Cl: On-site basis accuracy parameter (for Gram-Schmidt orthonormalisation) not specified.
  Using default value basis_acc =  0.1000000E-03.
  Species Cl                  : Using default innermost maximum threshold i_radial=  2 for radial functions.
  Species Cl                  : Default cutoff onset for free atom density etc. : 0.40000000E+01 AA.
  Species Cl                  : Basic radial grid will be enhanced according to radial_multiplier =   2, to contain    91 grid points.
  | MBD: Using the same k-grid sampling as DFT
 
  Finished reading input file 'control.in'. Consistency checks are next.
 
  MPI_IN_PLACE appears to work with this MPI implementation.
  | Keeping use_mpi_in_place .true. (see manual).
  Target number of points in a grid batch is not set. Defaulting to  100
  Method for grid partitioning is not set. Defaulting to parallel hash+maxmin partitioning.
  Batch size limit is not set. Defaulting to    200
  By default, will store active basis functions for each batch.
  If in need of memory, prune_basis_once .false. can be used to disable this option.
  communication_type for Hartree potential was not specified.
  Defaulting to calc_hartree .
  Defaulting to Pulay charge density mixer.
  Pulay mixer: Number of relevant iterations not set.
  Defaulting to    8 iterations.
  Pulay mixer: Number of initial linear mixing iterations not set.
  Defaulting to    0 iterations.
  Work space size for distributed Hartree potential not set.
  Defaulting to   0.200000E+03 MB.
  Mixing parameter for charge density mixing has not been set.
  Using default: charge_mix_param =     0.0500.
  The mixing parameter will be adjusted in iteration number     2 of the first full s.c.f. cycle only.
  Algorithm-dependent basis array size parameters:
  | n_max_pulay                         :        8
  Maximum number of self-consistency iterations not provided.
  Presetting  1000 iterations.
  Presetting      1001 iterations before the initial mixing cycle
  is restarted anyway using the sc_init_iter criterion / keyword.
  Presetting a factor      1.000 between actual scf density residual
  and density convergence criterion sc_accuracy_rho below which sc_init_iter
  takes no effect.
  Geometry relaxation not requested: no relaxation will be performed.
  Handling of forces: Unphysical translation and rotation will be removed from forces.
  No accuracy limit for integral partition fn. given. Defaulting to  0.1000E-14.
  No threshold value for u(r) in integrations given. Defaulting to  0.1000E-05.
  No occupation type (smearing scheme) given. Defaulting to Gaussian broadening, width =  0.1000E-01 eV.
  The width will be adjusted in iteration number     2 of the first full s.c.f. cycle only.
  S.C.F. convergence parameters will be adjusted in iteration number     2 of the first full s.c.f. cycle only.
  No accuracy for occupation numbers given. Defaulting to  0.1000E-12.
  No threshold value for occupation numbers given. Defaulting to  0.0000E+00.
  No accuracy for fermi level given. Defaulting to  0.1000E-19.
  Maximum # of iterations to find E_F not set. Defaulting to  200.
  Preferred method for the eigenvalue solver ('KS_method') not specified in 'control.in'.
  Defaulting to serial version, 'lapack_fast'.
  Will not use alltoall communication since running on < 1024 CPUs.
  Threshold for basis singularities not set.
  Default threshold for basis singularities:  0.1000E-04
  partition_type (choice of integration weights) for integrals was not specified.
  | Using a version of the partition function of Stratmann and coworkers ('stratmann_smoother').
  | At each grid point, the set of atoms used to build the partition table is smoothly restricted to
  | only those atoms whose free-atom density would be non-zero at that grid point.
  Partitioning for Hartree potential was not defined. Using partition_type for integrals.
  | Adjusted default value of keyword multip_moments_threshold to:       0.10000000E-11
  | This value may affect high angular momentum components of the Hartree potential in periodic systems.
  Spin handling was not defined in control.in. Defaulting to unpolarized case.
  Angular momentum expansion for Kerker preconditioner not set explicitly.
  | Using default value of   0
  No explicit requirement for turning off preconditioner.
  | By default, it will be turned off when the charge convergence reaches
  | sc_accuracy_rho  =   0.100000E-05
  | sc_accuracy_eev  =   0.100000E-02
  | sc_accuracy_etot =   0.100000E-05
  No special mixing parameter while Kerker preconditioner is on.
  Using default: charge_mix_param =     0.0500.
  No q(lm)/r^(l+1) cutoff set for long-range Hartree potential.
  | Using default value of  0.100000E-09 .
  | Verify using the multipole_threshold keyword.
  Defaulting to new monopole extrapolation.
  Density update method: automatic selection selected.
  Using density matrix based charge density update.
  Using density matrix based charge density update.
  Using packed matrix style: index .
  Defaulting to use time-reversal symmetry for k-point grid.
------------------------------------------------------------


------------------------------------------------------------
          Reading geometry description geometry.in.
------------------------------------------------------------
 * Warning! You did not set the 'relativistic' flag in input file 'control.in'.
 * Since you are not attempting to treat any elements beyond Ca(Z=20), FHI-aims
 * will default to 'relativistic none'.
 * You must ensure that this is really what you want!!
 * For example, DO NOT compute total-energy differences between results from
 * different settings of the 'relativistic' flag.
  Input structure read successfully.
  The structure contains       13 atoms,  and a total of        130.000 electrons.

  Input geometry:
  | Unit cell:
  |        7.70482490        0.00000000        0.00000000
  |        3.85241245        6.67257410        0.00000000
  |        3.85241245        2.22419137        6.29096319
  | Atomic structure:
  |       Atom                x [A]            y [A]            z [A]
  |    1: Species Li            2.10428784        1.21491115        3.00007856
  |    2: Species Li            5.60053706        3.23347158        0.14540303
  |    3: Species Li            5.60053706        1.21491115        3.00007856
  |    4: Species Li            2.10428784        3.23347158        0.14540303
  |    5: Species Li            3.85241245        0.20563094        0.14540303
  |    6: Species Li            3.85241245        4.24275179        3.00007856
  |    7: Species P             7.70482490        4.44838273        3.14548160
  |    8: Species S             5.92466618        5.47615781        3.87222832
  |    9: Species S             7.70482487        4.44838271        0.96524136
  |   10: Species S             7.70482487        2.39283251        3.87222832
  |   11: Species S             9.48498355        5.47615781        3.87222832
  |   12: Species S             3.85241245        2.22419137        1.57274080
  |   13: Species Cl            0.00000000        0.00000000        0.00000000

  Lattice parameters for 3D lattice (in Angstroms) :     7.704825    7.704825    7.704825
  Angle(s) between unit vectors (in degrees)      :    60.000000   60.000000   60.000000

  |

  | The smallest distance between any two atoms is         2.18024018 AA.
  |
  | The first atom of this pair is atom number                      7 .
  | The second atom of this pair is atom number                    11 .
  | Wigner-Seitz cell of the first atom image           0     0     0 .
  | (The Wigner-Seitz cell of the second atom is 0 0 0  by definition.)

  Symmetry information by spglib:
  | Precision set to  0.1E-04
  | Number of Operations  : 24
  | Space group           : 216
  | International         : F-43m
  | Schoenflies           : Td^2

  Quantities derived from the lattice vectors:
  | Reciprocal lattice vector 1:  0.815487 -0.470822 -0.332921
  | Reciprocal lattice vector 2:  0.000000  0.941643 -0.332921
  | Reciprocal lattice vector 3:  0.000000 -0.000000  0.998764
  | Unit cell volume                               :   0.323425E+03  A^3

  Range separation radius for Ewald summation (hartree_convergence_parameter):      4.20847070 bohr.

  Fractional coordinates:
                         L1                L2                L3
       atom_frac         0.02311300        0.02311300        0.47688700  Li
       atom_frac         0.47688700        0.47688700        0.02311300  Li
       atom_frac         0.47688700        0.02311300        0.47688700  Li
       atom_frac         0.02311300        0.47688700        0.02311300  Li
       atom_frac         0.47688700        0.02311300        0.02311300  Li
       atom_frac         0.02311300        0.47688700        0.47688700  Li
       atom_frac         0.50000000        0.50000000        0.50000000  P
       atom_frac         0.15343300        0.61552233        0.61552233  S
       atom_frac         0.61552233        0.61552233        0.15343300  S
       atom_frac         0.61552233        0.15343300        0.61552233  S
       atom_frac         0.61552233        0.61552233        0.61552233  S
       atom_frac         0.25000000        0.25000000        0.25000000  S
       atom_frac         0.00000000        0.00000000        0.00000000  Cl

  Number of empty states per atom not set in control.in - providing a guess from actual geometry.
  | Total number of empty states used during s.c.f. cycle:       30
  If you use a very high smearing, use empty_states (per atom!) in control.in to increase this value.

  Structure-dependent array size parameters: 
  | Maximum number of distinct radial functions  :       43
  | Maximum number of basis functions            :      453
  | Number of Kohn-Sham states (occupied + empty):       95
------------------------------------------------------------

------------------------------------------------------------
          Preparing all fixed parts of the calculation.
------------------------------------------------------------
  Determining machine precision:
    2.225073858507201E-308
  Setting up grids for atomic and cluster calculations.

  Creating wave function, potential, and density for free atoms.

  Species: Li

  List of occupied orbitals and eigenvalues:
    n    l              occ      energy [Ha]    energy [eV]
    1    0           2.0000        -1.901473       -51.7417
    2    0           1.0000        -0.103132        -2.8064


  Species: P

  List of occupied orbitals and eigenvalues:
    n    l              occ      energy [Ha]    energy [eV]
    1    0           2.0000       -76.356288     -2077.7603
    2    0           2.0000        -6.358286      -173.0178
    3    0           2.0000        -0.509419       -13.8620
    2    1           6.0000        -4.573976      -124.4642
    3    1           3.0000        -0.201560        -5.4847


  Species: S

  List of occupied orbitals and eigenvalues:
    n    l              occ      energy [Ha]    energy [eV]
    1    0           2.0000       -88.108280     -2397.5483
    2    0           2.0000        -7.732485      -210.4116
    3    0           2.0000        -0.629532       -17.1304
    2    1           6.0000        -5.750324      -156.4743
    3    1           4.0000        -0.257562        -7.0086


  Species: Cl

  List of occupied orbitals and eigenvalues:
    n    l              occ      energy [Ha]    energy [eV]
    1    0           2.0000      -100.710795     -2740.4802
    2    0           2.0000        -9.222997      -250.9705
    3    0           2.0000        -0.754245       -20.5241
    2    1           6.0000        -7.039872      -191.5647
    3    1           5.0000        -0.316221        -8.6048

  Creating fixed part of basis set: Ionic, confined, hydrogenic.
 
  Li                   hydrogenic:
 
  List of hydrogenic basis orbitals: 
    n    l      effective z      eigenvalue [eV]  inner max. [A]     outer max. [A]     outer radius [A]   
    2    1         1.600000        -8.7048           1.319365           1.319365           6.386418
    2    0         2.000000       -13.6052           0.203259           1.385485           6.232164
    3    2         2.600000       -10.2084           1.835332           1.835332           6.386418
    3    1         4.600000       -31.9883           0.343834           1.385485           5.381805
    2    1         1.800000       -11.0199           1.181903           1.181903           6.386418
    3    0         6.200000       -58.1113           0.062858           1.111823           4.371906
    4    2         4.700000       -18.7772           0.761113           2.401695           6.386418
    4    3         4.100000       -14.2833           2.073992           2.073992           6.386418
 
 
  P                    ion:

  List of free ionic orbitals and eigenvalues:
    n    l      energy [Ha]    energy [eV]
    1    0       -77.297133     -2103.3620
    2    0        -7.273914      -197.9333
    3    0        -1.267536       -34.4914
    2    1        -5.491316      -149.4263
    3    1        -0.913470       -24.8568


  List of ionic basis orbitals and eigenvalues:
    n    l      energy [Ha]    energy [eV]    outer radius [A]
    3    2        -0.458060       -12.4644       5.404780
    3    1        -0.913461       -24.8565       4.724723
    3    0        -1.267529       -34.4912       4.232463

 
  P                    hydrogenic:
 
  List of hydrogenic basis orbitals: 
    n    l      effective z      eigenvalue [eV]  inner max. [A]     outer max. [A]     outer radius [A]   
    4    3         6.200000       -32.6870           1.357793           1.357793           5.339109
    5    4         8.600000       -40.2502           1.534356           1.534356           5.404780
    4    2         6.200000       -32.6848           0.577014           1.820771           5.404780
 
 
  S                    ion:

  List of free ionic orbitals and eigenvalues:
    n    l      energy [Ha]    energy [eV]
    1    0       -89.127201     -2425.2745
    2    0        -8.724378      -237.4024
    3    0        -1.464668       -39.8556
    2    1        -6.744348      -183.5230
    3    1        -1.048520       -28.5317


  List of ionic basis orbitals and eigenvalues:
    n    l      energy [Ha]    energy [eV]    outer radius [A]
    3    2        -0.496514       -13.5108       5.386362
    3    0        -1.464662       -39.8555       3.967934

 
  S                    hydrogenic:
 
  List of hydrogenic basis orbitals: 
    n    l      effective z      eigenvalue [eV]  inner max. [A]     outer max. [A]     outer radius [A]   
    2    1         1.800000       -11.0118           1.168531           1.168531           5.452614
    4    3         7.000000       -41.6672           1.212182           1.212182           5.066981
    4    2         6.200000       -32.6848           0.582121           1.814567           5.386362
    5    4        10.800000       -63.4785           1.227092           1.227092           4.766538
 
 
  Cl                   ion:

  List of free ionic orbitals and eigenvalues:
    n    l      energy [Ha]    energy [eV]
    1    0      -101.807232     -2770.3157
    2    0       -10.290876      -280.0290
    3    0        -1.664625       -45.2967
    2    1        -8.110237      -220.6908
    3    1        -1.183915       -32.2160


  List of ionic basis orbitals and eigenvalues:
    n    l      energy [Ha]    energy [eV]    outer radius [A]
    3    2        -0.529392       -14.4055       5.389057
    3    0        -1.664620       -45.2966       3.780461

 
  Cl                   hydrogenic:
 
  List of hydrogenic basis orbitals: 
    n    l      effective z      eigenvalue [eV]  inner max. [A]     outer max. [A]     outer radius [A]   
    2    1         1.900000       -12.2741           1.113321           1.113321           5.389057
    4    3         7.400000       -46.5653           1.140877           1.140877           4.886961
    5    4        10.400000       -58.8635           1.273568           1.273568           4.886961
    3    2         3.300000       -16.4532           1.439178           1.439178           5.455343
 

  Adding cutoff potential to free-atom effective potential.
  Creating atomic-like basis functions for current effective potential.

  Species Li                  :

  List of atomic basis orbitals and eigenvalues:
    n    l      energy [Ha]    energy [eV]    outer radius [A]
    1    0        -1.901473       -51.7417       4.318785
    2    0        -0.103132        -2.8064       6.464971


  Species P                   :

  List of atomic basis orbitals and eigenvalues:
    n    l      energy [Ha]    energy [eV]    outer radius [A]
    1    0       -76.356288     -2077.7603       0.736837
    2    0        -6.358286      -173.0178       2.532824
    3    0        -0.509419       -13.8620       5.274236
    2    1        -4.573976      -124.4642       2.862183
    3    1        -0.201560        -5.4847       5.404780


  Species S                   :

  List of atomic basis orbitals and eigenvalues:
    n    l      energy [Ha]    energy [eV]    outer radius [A]
    1    0       -88.108280     -2397.5483       0.682391
    2    0        -7.732485      -210.4116       2.317169
    3    0        -0.629532       -17.1304       5.256262
    2    1        -5.750324      -156.4743       2.555240
    3    1        -0.257562        -7.0086       5.386362


  Species Cl                  :

  List of atomic basis orbitals and eigenvalues:
    n    l      energy [Ha]    energy [eV]    outer radius [A]
    1    0      -100.710795     -2740.4802       0.642251
    2    0        -9.222997      -250.9705       2.128190
    3    0        -0.754245       -20.5241       5.194994
    2    1        -7.039872      -191.5647       2.346844
    3    1        -0.316221        -8.6048       5.323577

  Assembling full basis from fixed parts.
  | Species Li :   atomic orbital   1 s accepted.
  | Species Li :    hydro orbital   3 s accepted.
  | Species Li :    hydro orbital   2 s accepted.
  | Species Li :   atomic orbital   2 s accepted.
  | Species Li :    hydro orbital   3 p accepted.
  | Species Li :    hydro orbital   2 p accepted.
  | Species Li :    hydro orbital   2 p accepted.
  | Species Li :    hydro orbital   3 d accepted.
  | Species Li :    hydro orbital   4 d accepted.
  | Species Li :    hydro orbital   4 f accepted.
  | Species P :   atomic orbital   1 s accepted.
  | Species P :   atomic orbital   2 s accepted.
  | Species P :    ionic orbital   3 s accepted.
  | Species P :   atomic orbital   3 s accepted.
  | Species P :   atomic orbital   2 p accepted.
  | Species P :    ionic orbital   3 p accepted.
  | Species P :   atomic orbital   3 p accepted.
  | Species P :    ionic orbital   3 d accepted.
  | Species P :    hydro orbital   4 d accepted.
  | Species P :    hydro orbital   4 f accepted.
  | Species P :    hydro orbital   5 g accepted.
  | Species S :   atomic orbital   1 s accepted.
  | Species S :   atomic orbital   2 s accepted.
  | Species S :    ionic orbital   3 s accepted.
  | Species S :   atomic orbital   3 s accepted.
  | Species S :   atomic orbital   2 p accepted.
  | Species S :   atomic orbital   3 p accepted.
  | Species S :    hydro orbital   2 p accepted.
  | Species S :    ionic orbital   3 d accepted.
  | Species S :    hydro orbital   4 d accepted.
  | Species S :    hydro orbital   4 f accepted.
  | Species S :    hydro orbital   5 g accepted.
  | Species Cl :   atomic orbital   1 s accepted.
  | Species Cl :   atomic orbital   2 s accepted.
  | Species Cl :    ionic orbital   3 s accepted.
  | Species Cl :   atomic orbital   3 s accepted.
  | Species Cl :   atomic orbital   2 p accepted.
  | Species Cl :   atomic orbital   3 p accepted.
  | Species Cl :    hydro orbital   2 p accepted.
  | Species Cl :    ionic orbital   3 d accepted.
  | Species Cl :    hydro orbital   3 d accepted.
  | Species Cl :    hydro orbital   4 f accepted.
  | Species Cl :    hydro orbital   5 g accepted.
 
  Basis size parameters after reduction:
  | Total number of radial functions:       43
  | Total number of basis functions :      453
 
  Per-task memory consumption for arrays in subroutine allocate_ext:
  |          11.258640MB.
  Testing on-site integration grid accuracy.
  |  Species  Function  <phi|h_atom|phi> (log., in eV)  <phi|h_atom|phi> (rad., in eV)
           1        1                -51.7417001117                -51.7417000312
           1        2                 33.5927188637                 33.5926505054
           1        3                 69.1469416012                 69.1473382425
           1        4                 48.8336153902                 48.8810182289 ***
           1        5                 17.1749490570                 17.1749098864
           1        6                 32.1201183828                 32.1217831653
           1        7                  6.0166019876                  6.0249480535
           1        8                  4.9175332206                  4.9194842525
           1        9                 28.8010599263                 28.8011051086
           1       10                  9.9331480983                  9.9353515081
           2       11              -2077.7602992527              -2077.7602630746
           2       12               -173.0177635265               -173.0177629291
           2       13                -13.5620523038                -13.5620521963
           2       14                  6.3015351439                  6.3015396353
           2       15               -124.4642131574               -124.4642129967
           2       16                 -4.8468074573                 -4.8468065719
           2       17                  5.8113348591                  5.8108493787
           2       18                  5.1218113540                  5.1217878152
           2       19                 22.1386653152                 22.1386624883
           2       20                 19.3047268689                 19.3047231214
           2       21                 30.3235883931                 30.3235836780
           3       22              -2397.5482725833              -2397.5482291499
           3       23               -210.4116306505               -210.4116300246
           3       24                -16.8591546483                -16.8591544436
           3       25                  7.5848976656                  7.5849001027
           3       26               -156.4742745766               -156.4742744285
           3       27                 -7.0089268331                 -7.0089287934
           3       28                  6.8790437028                  6.8789536772
           3       29                  6.0023049431                  6.0023019693
           3       30                 19.5634804122                 19.5634829634
           3       31                 24.6809503130                 24.6809503093
           3       32                 47.5107032033                 47.5107040524
           4       33              -2740.4801671239              -2740.4801157382
           4       34               -250.9705040601               -250.9705032686
           4       35                -20.2716828479                -20.2716826054
           4       36                  9.0161300765                  9.0161279813
           4       37               -191.5646602865               -191.5646600866
           4       38                 -8.6049187754                 -8.6049181478
           4       39                  7.6458046208                  7.6458222053
           4       40                  6.9765726558                  6.9765744583
           4       41                 16.6546700656                 16.6546956458
           4       42                 28.0343243807                 28.0343233726
           4       43                 45.0370063060                 45.0370052039
 * Note: Onsite integrals marked "***" above are less accurate than
 * onsite_accuracy_threshold =    0.03000 eV. Usually, this is harmless.
 * When in doubt, tighten the "radial" and/or "radial_multiplier" flags to check.

  Preparing densities etc. for the partition functions (integrals / Hartree potential).

  Preparations completed.
  max(cpu_time)          :      0.314 s.
  Wall clock time (cpu1) :      0.315 s.
------------------------------------------------------------

------------------------------------------------------------
          Begin self-consistency loop: Initialization.

          Date     :  20220223, Time     :  183358.813
------------------------------------------------------------

  Initializing index lists of integration centers etc. from given atomic structure:
  Mapping all atomic coordinates to central unit cell.

  Initializing the k-points
          Using symmetry for reducing the k-points
  | k-points reduced from:       27 to       14
  | Number of k-points                             :        14
  The eigenvectors in the calculations are COMPLEX.
  | K-points in task   0:        14
  | Number of basis functions in the Hamiltonian integrals :      7520
  | Number of basis functions in a single unit cell        :       453
  | Number of centers in hartree potential         :      1534
  | Number of centers in hartree multipole         :       915
  | Number of centers in electron density summation:       752
  | Number of centers in basis integrals           :       801
  | Number of centers in integrals                 :       295
  | Number of centers in hamiltonian               :       882
  | Consuming         24 KiB for k_phase.
  | Number of super-cells (origin) [n_cells]                     :         729
  | Number of super-cells (after PM_index) [n_cells]             :         112
  | Number of super-cells in hamiltonian [n_cells_in_hamiltonian]:         112
  | Size of matrix packed + index [n_hamiltonian_matrix_size] :     1874363
  Partitioning the integration grid into batches with parallel hashing+maxmin method.
  | Number of batches:     3349
  | Maximal batch size:     134
  | Minimal batch size:      63
  | Average batch size:      80.660
  | Standard deviation of batch sizes:      27.293

  Integration load balanced across     1 MPI tasks.
  Work distribution over tasks is as follows:
  Task     0 has     270130 integration points.
  Initializing partition tables, free-atom densities, potentials, etc. across the integration grid (initialize_grid_storage).
  | initialize_grid_storage: Actual outermost partition radius vs. multipole_radius_free
  | (-- VB: in principle, multipole_radius_free should be larger, hence this output)
  | Species        1: Confinement radius =              7.000000000000000 AA, multipole_radius_free =              7.042572113910259 AA.
  | Species        1: outer_partition_radius set to              7.042572113910259 AA .
  | Species        2: Confinement radius =              6.000000000000000 AA, multipole_radius_free =              6.033387558927091 AA.
  | Species        2: outer_partition_radius set to              6.033387558927091 AA .
  | Species        3: Confinement radius =              6.000000000000000 AA, multipole_radius_free =              6.012827091137924 AA.
  | Species        3: outer_partition_radius set to              6.012827091137924 AA .
  | Species        4: Confinement radius =              6.000000000000000 AA, multipole_radius_free =              6.015836048499353 AA.
  | Species        4: outer_partition_radius set to              6.015836048499353 AA .
  | Original list of interatomic distances with         801 x        801 entries is created.
  | Net number of integration points:   270130
  | of which are non-zero points    :   220891
  | Numerical average free-atom electrostatic potential    :     -8.18948331 eV
  Renormalizing the initial density to the exact electron count on the 3D integration grid.
  | Initial density: Formal number of electrons (from input files) :     130.0000000000
  | Integrated number of electrons on 3D grid     :     130.0000217790
  | Charge integration error                      :       0.0000217790
  | Normalization factor for density and gradient :       0.9999998325
  Obtaining max. number of non-zero basis functions in each batch (get_n_compute_maxes).
  | Maximal number of non-zero basis functions:     1553 in task     0
  Allocating        9.640 MB for KS_eigenvector_complex
  Integrating Hamiltonian matrix: batch-based integration.
  Time summed over all CPUs for integration: real work      165.197 s, elapsed      165.197 s
  Integrating overlap matrix.
  Time summed over all CPUs for integration: real work      128.795 s, elapsed      128.795 s
  Decreasing sparse matrix size:
   Tolerance:  9.999999824516700E-014
   Hamiltonian matrix
  | Array has  1682709 nonzero elements out of  1874363 elements
  | Sparsity factor is 0.102
   Overlap matrix
  | Array has  1562854 nonzero elements out of  1874363 elements
  | Sparsity factor is 0.166
  New size of hamiltonian matrix:     1683061

  Updating Kohn-Sham eigenvalues and eigenvectors using ELSI and the ELPA eigensolver.
  Overlap matrix is nonsingular
  | Lowest eigenvalue of overlap  :  0.82E-04
  | Highest eigenvalue of overlap :  0.11E+02
  Finished singularity check of overlap matrix
  | Time :     0.030 s
  Finished Cholesky decomposition
  | Time :     0.007 s
  Finished transformation to standard eigenproblem
  | Time :     0.013 s
  Starting LAPACK eigensolver
  Finished solving standard eigenproblem
  | Time :     0.030 s
  Finished back-transformation of eigenvectors
  | Time :     0.002 s

  Obtaining occupation numbers and chemical potential using ELSI.
  | Chemical potential (Fermi level):    -8.45222970eV
  Writing Kohn-Sham eigenvalues.
  K-point:       1 at    0.000000    0.000000    0.000000 (in units of recip. lattice)

  State    Occupation    Eigenvalue [Ha]    Eigenvalue [eV]
      1       2.00000        -100.715325        -2740.60342
      2       2.00000         -88.171459        -2399.26747
      3       2.00000         -88.142310        -2398.47428
      4       2.00000         -88.142310        -2398.47428
      5       2.00000         -88.142310        -2398.47428
      6       2.00000         -88.142310        -2398.47428
      7       2.00000         -76.378942        -2078.37676
      8       2.00000          -9.227861         -251.10288
      9       2.00000          -7.798405         -212.20539
     10       2.00000          -7.768739         -211.39813
     11       2.00000          -7.768739         -211.39813
     12       2.00000          -7.768739         -211.39813
     13       2.00000          -7.768739         -211.39813
     14       2.00000          -7.044694         -191.69587
     15       2.00000          -7.044694         -191.69587
     16       2.00000          -7.044694         -191.69587
     17       2.00000          -6.384856         -173.74078
     18       2.00000          -5.815939         -158.25976
     19       2.00000          -5.815939         -158.25976
     20       2.00000          -5.815939         -158.25976
     21       2.00000          -5.786825         -157.46751
     22       2.00000          -5.786825         -157.46751
     23       2.00000          -5.786825         -157.46751
     24       2.00000          -5.786825         -157.46751
     25       2.00000          -5.786089         -157.44748
     26       2.00000          -5.786089         -157.44748
     27       2.00000          -5.786089         -157.44748
     28       2.00000          -5.786089         -157.44748
     29       2.00000          -5.786089         -157.44748
     30       2.00000          -5.786089         -157.44748
     31       2.00000          -5.786089         -157.44748
     32       2.00000          -5.786089         -157.44748
     33       2.00000          -4.600248         -125.17911
     34       2.00000          -4.600248         -125.17911
     35       2.00000          -4.600248         -125.17911
     36       2.00000          -1.913019          -52.05589
     37       2.00000          -1.912962          -52.05433
     38       2.00000          -1.912962          -52.05433
     39       2.00000          -1.912962          -52.05433
     40       2.00000          -1.912934          -52.05359
     41       2.00000          -1.912934          -52.05359
     42       2.00000          -0.774146          -21.06557
     43       2.00000          -0.764414          -20.80075
     44       2.00000          -0.730888          -19.88848
     45       2.00000          -0.707364          -19.24834
     46       2.00000          -0.707363          -19.24834
     47       2.00000          -0.707363          -19.24834
     48       2.00000          -0.558518          -15.19804
     49       2.00000          -0.419407          -11.41264
     50       2.00000          -0.419407          -11.41264
     51       2.00000          -0.419407          -11.41263
     52       2.00000          -0.378668          -10.30408
     53       2.00000          -0.378668          -10.30408
     54       2.00000          -0.378668          -10.30407
     55       2.00000          -0.351290           -9.55908
     56       2.00000          -0.351290           -9.55907
     57       2.00000          -0.341001           -9.27911
     58       2.00000          -0.341001           -9.27911
     59       2.00000          -0.341001           -9.27911
     60       2.00000          -0.323459           -8.80176
     61       2.00000          -0.323459           -8.80176
     62       2.00000          -0.323459           -8.80175
     63       2.00000          -0.312577           -8.50564
     64       2.00000          -0.312577           -8.50564
     65       2.00000          -0.312576           -8.50564
     66       0.00000          -0.215212           -5.85621
     67       0.00000          -0.154340           -4.19980
     68       0.00000          -0.132664           -3.60998
     69       0.00000          -0.132664           -3.60997
     70       0.00000          -0.132664           -3.60997
     71       0.00000          -0.090206           -2.45463
     72       0.00000          -0.090206           -2.45462
     73       0.00000          -0.090205           -2.45461
     74       0.00000          -0.041763           -1.13644
     75       0.00000          -0.041763           -1.13642
     76       0.00000          -0.041762           -1.13641
     77       0.00000          -0.024558           -0.66826
     78       0.00000          -0.024556           -0.66821
     79       0.00000          -0.014188           -0.38608
     80       0.00000          -0.014187           -0.38606
     81       0.00000           0.012759            0.34719
     82       0.00000           0.012759            0.34720
     83       0.00000           0.012762            0.34727
     84       0.00000           0.020545            0.55906
     85       0.00000           0.055529            1.51103
     86       0.00000           0.055529            1.51103
     87       0.00000           0.055533            1.51112
     88       0.00000           0.065721            1.78835
     89       0.00000           0.065722            1.78839
     90       0.00000           0.072124            1.96260
     91       0.00000           0.072126            1.96266
     92       0.00000           0.072127            1.96269
     93       0.00000           0.083429            2.27021
     94       0.00000           0.083430            2.27025
     95       0.00000           0.083432            2.27030

  What follows are estimated values for band gap, HOMO, LUMO, etc.
  | They are estimated on a discrete k-point grid and not necessarily exact.
  | For converged numbers, create a DOS and/or band structure plot on a denser k-grid.

  Highest occupied state (VBM) at     -8.50110205 eV (relative to internal zero)
  | Occupation number:      2.00000000
  | K-point:       2 at    0.000000    0.000000    0.333333 (in units of recip. lattice)

  Lowest unoccupied state (CBM) at    -5.85620772 eV (relative to internal zero)
  | Occupation number:      0.00000000
  | K-point:       1 at    0.000000    0.000000    0.000000 (in units of recip. lattice)

  ESTIMATED overall HOMO-LUMO gap:      2.64489433 eV between HOMO at k-point 2 and LUMO at k-point 1
  | This appears to be an indirect band gap.
  | Smallest direct gap :      2.64943114 eV for k_point 1 at    0.000000    0.000000    0.000000 (in units of recip. lattice)
  The gap value is above 0.2 eV. Unless you are using a very sparse k-point grid,
  this system is most likely an insulator or a semiconductor.
  Calculating total energy contributions from superposition of free atom densities.

  Total energy components:
  | Sum of eigenvalues            :       -1633.24425378 Ha      -44442.83737204 eV
  | XC energy correction          :        -189.77564912 Ha       -5164.05815696 eV
  | XC potential correction       :         245.15560757 Ha        6671.02349981 eV
  | Free-atom electrostatic energy:       -1259.44111638 Ha      -34271.13647300 eV
  | Hartree energy correction     :           0.00000000 Ha           0.00000000 eV
  | Entropy correction            :          -0.00000000 Ha          -0.00000000 eV
  | ---------------------------
  | Total energy                  :       -2837.30541172 Ha      -77207.00850219 eV
  | Total energy, T -> 0          :       -2837.30541172 Ha      -77207.00850219 eV  <-- do not rely on this value for anything but (periodic) metals
  | Electronic free energy        :       -2837.30541172 Ha      -77207.00850219 eV

  Derived energy quantities:
  | Kinetic energy                :        2832.18664900 Ha       77067.71988178 eV
  | Electrostatic energy          :       -5479.71641160 Ha     -149110.67022701 eV
  | Energy correction for multipole
  | error in Hartree potential    :           0.00000000 Ha           0.00000000 eV
  | Sum of eigenvalues per atom                           :       -3418.67979785 eV
  | Total energy (T->0) per atom                          :       -5939.00065401 eV  <-- do not rely on this value for anything but (periodic) metals
  | Electronic free energy per atom                       :       -5939.00065401 eV
  Initialize hartree_potential_storage
  Max. number of atoms included in rho_multipole:           13

  End scf initialization - timings             :  max(cpu_time)    wall_clock(cpu1)
  | Time for scf. initialization               :      107.603 s         107.697 s
  | Boundary condition initialization          :        0.538 s           0.538 s
  | Integration                                :       88.704 s          88.789 s
  | Solution of K.-S. eqns.                    :        1.286 s           1.288 s
  | Grid partitioning                          :        2.581 s           2.582 s
  | Preloading free-atom quantities on grid    :        0.014 s           0.014 s
  | Free-atom superposition energy             :        1.834 s           1.835 s
  | Total energy evaluation                    :        0.000 s           0.000 s

  Partial memory accounting:
  | Current value for overall tracked memory usage on task 0  :          43.302 MB
  | Peak value for overall tracked memory usage on task 0     :          71.455 MB after allocating wave
  | Largest tracked array allocation on task 0 so far         :          19.294 MB  when allocating hamiltonian_shell
  Note:  These values currently only include a subset of arrays which are explicitly tracked.
  The "true" memory usage will be greater.
------------------------------------------------------------

------------------------------------------------------------
          Begin self-consistency iteration #    1

  Date     :  20220223, Time     :  183546.510
------------------------------------------------------------
  Evaluating new KS density using the density matrix
  Evaluating density matrix
  Time summed over all CPUs for getting density from density matrix: real work      297.340 s, elapsed      297.340 s
  Integration grid: deviation in total charge (<rho> - N_e) =  -1.392664E-12
  Pulay mixing of updated and previous charge densities.

  Evaluating partitioned Hartree potential by multipole expansion.
  | Analytical far-field extrapolation by fixed multipoles:
  | Hartree multipole sum: apparent total charge =   0.140160E-02
  Summing up the Hartree potential.
  | Estimated reciprocal-space cutoff momentum G_max:         2.29698914 bohr^-1 .
  | Reciprocal lattice points for long-range Hartree potential:     458
  Time summed over all CPUs for potential: real work       55.227 s, elapsed       55.227 s
  | RMS charge density error from multipole expansion :   0.369652E-03
  | Average real-space part of the electrostatic potential :      0.01564742 eV

  Integrating Hamiltonian matrix: batch-based integration.
  Time summed over all CPUs for integration: real work      164.173 s, elapsed      164.173 s

  Updating Kohn-Sham eigenvalues and eigenvectors using ELSI and the ELPA eigensolver.
  Finished Cholesky decomposition
  | Time :     0.007 s
  Finished transformation to standard eigenproblem
  | Time :     0.013 s
  Starting LAPACK eigensolver
  Finished solving standard eigenproblem
  | Time :     0.031 s
  Finished back-transformation of eigenvectors
  | Time :     0.002 s

  Obtaining occupation numbers and chemical potential using ELSI.
  | Chemical potential (Fermi level):    -8.41307912eV
  Writing Kohn-Sham eigenvalues.
  K-point:       1 at    0.000000    0.000000    0.000000 (in units of recip. lattice)

  State    Occupation    Eigenvalue [Ha]    Eigenvalue [eV]
      1       2.00000        -100.705890        -2740.34670
      2       2.00000         -88.158041        -2398.90234
      3       2.00000         -88.137652        -2398.34755
      4       2.00000         -88.137652        -2398.34754
      5       2.00000         -88.137652        -2398.34754
      6       2.00000         -88.137652        -2398.34754
      7       2.00000         -76.391375        -2078.71508
      8       2.00000          -9.220178         -250.89381
      9       2.00000          -7.787327         -211.90396
     10       2.00000          -7.765178         -211.30124
     11       2.00000          -7.765178         -211.30124
     12       2.00000          -7.765178         -211.30124
     13       2.00000          -7.765178         -211.30124
     14       2.00000          -7.036839         -191.48213
     15       2.00000          -7.036839         -191.48213
     16       2.00000          -7.036839         -191.48213
     17       2.00000          -6.394749         -174.00997
     18       2.00000          -5.804649         -157.95252
     19       2.00000          -5.804649         -157.95252
     20       2.00000          -5.804649         -157.95252
     21       2.00000          -5.783441         -157.37545
     22       2.00000          -5.783441         -157.37545
     23       2.00000          -5.783441         -157.37545
     24       2.00000          -5.783441         -157.37545
     25       2.00000          -5.782285         -157.34397
     26       2.00000          -5.782285         -157.34397
     27       2.00000          -5.782285         -157.34397
     28       2.00000          -5.782285         -157.34397
     29       2.00000          -5.782285         -157.34397
     30       2.00000          -5.782285         -157.34397
     31       2.00000          -5.782285         -157.34397
     32       2.00000          -5.782285         -157.34397
     33       2.00000          -4.610333         -125.45355
     34       2.00000          -4.610333         -125.45355
     35       2.00000          -4.610333         -125.45355
     36       2.00000          -1.913279          -52.06297
     37       2.00000          -1.913222          -52.06142
     38       2.00000          -1.913222          -52.06142
     39       2.00000          -1.913222          -52.06142
     40       2.00000          -1.913195          -52.06069
     41       2.00000          -1.913195          -52.06068
     42       2.00000          -0.774987          -21.08846
     43       2.00000          -0.760092          -20.68316
     44       2.00000          -0.724370          -19.71111
     45       2.00000          -0.706290          -19.21914
     46       2.00000          -0.706290          -19.21914
     47       2.00000          -0.706290          -19.21913
     48       2.00000          -0.559550          -15.22612
     49       2.00000          -0.419964          -11.42781
     50       2.00000          -0.419964          -11.42780
     51       2.00000          -0.419964          -11.42780
     52       2.00000          -0.373812          -10.17195
     53       2.00000          -0.373812          -10.17195
     54       2.00000          -0.373812          -10.17194
     55       2.00000          -0.350241           -9.53055
     56       2.00000          -0.350241           -9.53054
     57       2.00000          -0.338894           -9.22176
     58       2.00000          -0.338893           -9.22176
     59       2.00000          -0.338893           -9.22176
     60       2.00000          -0.320942           -8.73327
     61       2.00000          -0.320942           -8.73326
     62       2.00000          -0.320941           -8.73326
     63       2.00000          -0.311143           -8.46663
     64       2.00000          -0.311143           -8.46663
     65       2.00000          -0.311143           -8.46663
     66       0.00000          -0.215931           -5.87578
     67       0.00000          -0.153240           -4.16987
     68       0.00000          -0.133931           -3.64445
     69       0.00000          -0.133931           -3.64444
     70       0.00000          -0.133931           -3.64444
     71       0.00000          -0.088840           -2.41747
     72       0.00000          -0.088840           -2.41746
     73       0.00000          -0.088840           -2.41745
     74       0.00000          -0.040748           -1.10881
     75       0.00000          -0.040747           -1.10878
     76       0.00000          -0.040747           -1.10877
     77       0.00000          -0.023633           -0.64310
     78       0.00000          -0.023631           -0.64305
     79       0.00000          -0.013505           -0.36748
     80       0.00000          -0.013504           -0.36745
     81       0.00000           0.013338            0.36294
     82       0.00000           0.013338            0.36295
     83       0.00000           0.013341            0.36302
     84       0.00000           0.021726            0.59119
     85       0.00000           0.056232            1.53014
     86       0.00000           0.056232            1.53014
     87       0.00000           0.056235            1.53023
     88       0.00000           0.067112            1.82622
     89       0.00000           0.067114            1.82626
     90       0.00000           0.072790            1.98073
     91       0.00000           0.072793            1.98079
     92       0.00000           0.072794            1.98082
     93       0.00000           0.084832            2.30839
     94       0.00000           0.084833            2.30843
     95       0.00000           0.084835            2.30849

  What follows are estimated values for band gap, HOMO, LUMO, etc.
  | They are estimated on a discrete k-point grid and not necessarily exact.
  | For converged numbers, create a DOS and/or band structure plot on a denser k-grid.

  Highest occupied state (VBM) at     -8.46203875 eV (relative to internal zero)
  | Occupation number:      2.00000000
  | K-point:       2 at    0.000000    0.000000    0.333333 (in units of recip. lattice)

  Lowest unoccupied state (CBM) at    -5.87578197 eV (relative to internal zero)
  | Occupation number:      0.00000000
  | K-point:       1 at    0.000000    0.000000    0.000000 (in units of recip. lattice)

  ESTIMATED overall HOMO-LUMO gap:      2.58625678 eV between HOMO at k-point 2 and LUMO at k-point 1
  | This appears to be an indirect band gap.
  | Smallest direct gap :      2.59084466 eV for k_point 1 at    0.000000    0.000000    0.000000 (in units of recip. lattice)
  The gap value is above 0.2 eV. Unless you are using a very sparse k-point grid,
  this system is most likely an insulator or a semiconductor.

  Total energy components:
  | Sum of eigenvalues            :       -1632.91050542 Ha      -44433.75561712 eV
  | XC energy correction          :        -189.80584215 Ha       -5164.87975108 eV
  | XC potential correction       :         245.19429181 Ha        6672.07615155 eV
  | Free-atom electrostatic energy:       -1259.44111638 Ha      -34271.13647300 eV
  | Hartree energy correction     :          -0.32836026 Ha          -8.93513740 eV
  | Entropy correction            :          -0.00000000 Ha          -0.00000000 eV
  | ---------------------------
  | Total energy                  :       -2837.29153241 Ha      -77206.63082705 eV
  | Total energy, T -> 0          :       -2837.29153241 Ha      -77206.63082705 eV  <-- do not rely on this value for anything but (periodic) metals
  | Electronic free energy        :       -2837.29153241 Ha      -77206.63082705 eV

  Derived energy quantities:
  | Kinetic energy                :        2832.35739867 Ha       77072.36621650 eV
  | Electrostatic energy          :       -5479.84308893 Ha     -149114.11729246 eV
  | Energy correction for multipole
  | error in Hartree potential    :          -0.00066432 Ha          -0.01807719 eV
  | Sum of eigenvalues per atom                           :       -3417.98120132 eV
  | Total energy (T->0) per atom                          :       -5938.97160208 eV  <-- do not rely on this value for anything but (periodic) metals
  | Electronic free energy per atom                       :       -5938.97160208 eV

  Self-consistency convergence accuracy:
  | Change of charge density      :  0.2865E+00
  | Change of sum of eigenvalues  :  0.9082E+01 eV
  | Change of total energy        :  0.3777E+00 eV

  End self-consistency iteration #     1       :  max(cpu_time)    wall_clock(cpu1)
  | Time for this iteration                    :      167.263 s         167.411 s
  | Charge density update                      :       89.794 s          89.874 s
  | Density mixing & preconditioning           :       10.305 s          10.312 s
  | Hartree multipole update                   :        0.022 s           0.022 s
  | Hartree multipole summation                :       16.741 s          16.752 s
  | Integration                                :       49.527 s          49.575 s
  | Solution of K.-S. eqns.                    :        0.875 s           0.875 s
  | Total energy evaluation                    :        0.000 s           0.001 s

  Partial memory accounting:
  | Current value for overall tracked memory usage on task 0  :          43.302 MB
  | Peak value for overall tracked memory usage on task 0     :          72.586 MB after allocating gradient_basis_wave
  | Largest tracked array allocation on task 0 so far         :          19.294 MB  when allocating hamiltonian_shell
  Note:  These values currently only include a subset of arrays which are explicitly tracked.
  The "true" memory usage will be greater.
------------------------------------------------------------

------------------------------------------------------------
          Begin self-consistency iteration #    2

  Date     :  20220223, Time     :  183833.923
------------------------------------------------------------
  Evaluating new KS density using the density matrix
  Evaluating density matrix
  Time summed over all CPUs for getting density from density matrix: real work      296.799 s, elapsed      296.799 s
  Integration grid: deviation in total charge (<rho> - N_e) =  -8.526513E-13
  Pulay mixing of updated and previous charge densities.

  Evaluating partitioned Hartree potential by multipole expansion.
  | Analytical far-field extrapolation by fixed multipoles:
  | Hartree multipole sum: apparent total charge =   0.165887E-01
  Summing up the Hartree potential.
  Time summed over all CPUs for potential: real work       63.910 s, elapsed       63.910 s
  | RMS charge density error from multipole expansion :   0.443718E-02
  | Average real-space part of the electrostatic potential :      0.18421069 eV

  Integrating Hamiltonian matrix: batch-based integration.
[...]
  |   Free atom volume        :     76.98066615
  |   Hirshfeld volume        :     76.34740169
  |   Hirshfeld dipole vector :      0.00000000       0.00001250       0.00000629
  |   Hirshfeld dipole moment :      0.00001400
  |   Hirshfeld second moments:     -0.09894736      -0.00000000      -0.00000000
  |                                 -0.00000000      -0.09895519      -0.00004283
  |                                 -0.00000000      -0.00004283      -0.09894182
  ----------------------------------------------------------------------
  | Atom    13: Cl
  |   Hirshfeld charge        :     -0.35361959
  |   Free atom volume        :     66.13469196
  |   Hirshfeld volume        :     66.09926225
  |   Hirshfeld dipole vector :      0.00000000      -0.00000005       0.00002268
  |   Hirshfeld dipole moment :      0.00002268
  |   Hirshfeld second moments:     -0.09088352       0.00000000       0.00000000
  |                                  0.00000000      -0.09085408      -0.00000422
  |                                  0.00000000      -0.00000422      -0.09086164
  ----------------------------------------------------------------------

  | Many-Body Dispersion (MBD@rsSCS) energy
  | Total dynamic anisotropic polarizability, \alpha_{ij}(iu), (a.u.)
  | -------------------------------------------------------------------
  |      u            xx         yy         zz         yz         xz         xy
  |   0.000000    688.970    688.975    688.972      0.003      0.000      0.000
   Negative alpha! Aborting this iteration
  | --------------------------------------------------------------

  Total energy components:
  | Sum of eigenvalues            :       -1629.88621469 Ha      -44351.46047931 eV
  | XC energy correction          :        -190.15926433 Ha       -5174.49685799 eV
  | XC potential correction       :         245.64537494 Ha        6684.35074808 eV
  | Free-atom electrostatic energy:       -1259.44111638 Ha      -34271.13647300 eV
  | Hartree energy correction     :          -3.37892628 Ha         -91.94526209 eV
  | Entropy correction            :          -0.00000000 Ha          -0.00000000 eV
  | ---------------------------
  | Total energy                  :       -2837.22014675 Ha      -77204.68832430 eV
  | Total energy, T -> 0          :       -2837.22014675 Ha      -77204.68832430 eV  <-- do not rely on this value for anything but (periodic) metals
  | Electronic free energy        :       -2837.22014675 Ha      -77204.68832430 eV

  Derived energy quantities:
  | Kinetic energy                :        2831.97113479 Ha       77061.85544158 eV
  | Electrostatic energy          :       -5479.03201720 Ha     -149092.04690789 eV
  | Energy correction for multipole
  | error in Hartree potential    :          -0.01485027 Ha          -0.40409631 eV
  | Sum of eigenvalues per atom                           :       -3411.65080610 eV
  | Total energy (T->0) per atom                          :       -5938.82217879 eV  <-- do not rely on this value for anything but (periodic) metals
  | Electronic free energy per atom                       :       -5938.82217879 eV

  atomic forces [eV/Ang]:
  -----------------------
  atom #    1
   Hellmann-Feynman              : -0.118850E-01 -0.701856E-02  0.973589E-02
   Ionic forces                  :  0.000000E+00  0.000000E+00  0.000000E+00
   Multipole                     : -0.218260E-02 -0.115833E-02  0.171317E-02
   Pulay + GGA                   :  0.979599E-01  0.565902E-01 -0.799582E-01
   Van der Waals                 :  0.000000E+00  0.000000E+00  0.000000E+00
   ----------------------------------------------------------------
   Total forces(   1)            :  0.838923E-01  0.484134E-01 -0.685091E-01
  atom #    2
   Hellmann-Feynman              :  0.118623E-01  0.706556E-02 -0.994478E-02
   Ionic forces                  :  0.000000E+00  0.000000E+00  0.000000E+00
   Multipole                     :  0.214138E-02  0.104907E-02 -0.172520E-02
   Pulay + GGA                   : -0.978837E-01 -0.565608E-01  0.802195E-01
   Van der Waals                 :  0.000000E+00  0.000000E+00  0.000000E+00
   ----------------------------------------------------------------
   Total forces(   2)            : -0.838799E-01 -0.484462E-01  0.685495E-01
  atom #    3
   Hellmann-Feynman              :  0.118849E-01 -0.701854E-02  0.973584E-02
   Ionic forces                  :  0.000000E+00  0.000000E+00  0.000000E+00
   Multipole                     :  0.218260E-02 -0.115832E-02  0.171317E-02
   Pulay + GGA                   : -0.979599E-01  0.565903E-01 -0.799582E-01
   Van der Waals                 :  0.000000E+00  0.000000E+00  0.000000E+00
   ----------------------------------------------------------------
   Total forces(   3)            : -0.838923E-01  0.484134E-01 -0.685092E-01
  atom #    4
   Hellmann-Feynman              : -0.118624E-01  0.706560E-02 -0.994481E-02
   Ionic forces                  :  0.000000E+00  0.000000E+00  0.000000E+00
   Multipole                     : -0.214138E-02  0.104907E-02 -0.172521E-02
   Pulay + GGA                   :  0.978837E-01 -0.565608E-01  0.802195E-01
   Van der Waals                 :  0.000000E+00  0.000000E+00  0.000000E+00
   ----------------------------------------------------------------
   Total forces(   4)            :  0.838799E-01 -0.484461E-01  0.685495E-01
  atom #    5
   Hellmann-Feynman              : -0.465648E-08 -0.142030E-01 -0.962468E-02
   Ionic forces                  :  0.000000E+00  0.000000E+00  0.000000E+00
   Multipole                     : -0.139230E-08 -0.242925E-02 -0.169917E-02
   Pulay + GGA                   : -0.360026E-08  0.113550E+00  0.798256E-01
   Van der Waals                 :  0.000000E+00  0.000000E+00  0.000000E+00
   ----------------------------------------------------------------
   Total forces(   5)            : -0.964903E-08  0.969175E-01  0.685018E-01
  atom #    6
   Hellmann-Feynman              : -0.220872E-07  0.135714E-01  0.989317E-02
   Ionic forces                  :  0.000000E+00  0.000000E+00  0.000000E+00
   Multipole                     :  0.429576E-08  0.249350E-02  0.160873E-02
   Pulay + GGA                   :  0.221629E-07 -0.112953E+00 -0.800526E-01
   Van der Waals                 :  0.000000E+00  0.000000E+00  0.000000E+00
   ----------------------------------------------------------------
   Total forces(   6)            :  0.437147E-08 -0.968880E-01 -0.685507E-01
  atom #    7
   Hellmann-Feynman              : -0.865949E-06 -0.124126E-02 -0.593572E-03
   Ionic forces                  :  0.000000E+00  0.000000E+00  0.000000E+00
   Multipole                     : -0.406720E-07  0.815703E-03  0.185273E-03
   Pulay + GGA                   :  0.376274E-06  0.451647E-03  0.389167E-03
   Van der Waals                 :  0.000000E+00  0.000000E+00  0.000000E+00
   ----------------------------------------------------------------
   Total forces(   7)            : -0.530347E-06  0.260883E-04 -0.191315E-04
  atom #    8
   Hellmann-Feynman              : -0.123533E+02  0.713225E+01  0.504125E+01
   Ionic forces                  :  0.000000E+00  0.000000E+00  0.000000E+00
   Multipole                     :  0.211659E+00 -0.121603E+00 -0.862903E-01
   Pulay + GGA                   :  0.132177E+02 -0.763177E+01 -0.539424E+01
   Van der Waals                 :  0.000000E+00  0.000000E+00  0.000000E+00
   ----------------------------------------------------------------
   Total forces(   8)            :  0.107601E+01 -0.621123E+00 -0.439275E+00
  atom #    9
   Hellmann-Feynman              : -0.163088E-06 -0.791443E-03 -0.151303E+02
   Ionic forces                  :  0.000000E+00  0.000000E+00  0.000000E+00
   Multipole                     : -0.756049E-08  0.895587E-03  0.259775E+00
   Pulay + GGA                   :  0.342164E-06 -0.522182E-04  0.161883E+02
   Van der Waals                 :  0.000000E+00  0.000000E+00  0.000000E+00
   ----------------------------------------------------------------
   Total forces(   9)            :  0.171515E-06  0.519261E-04  0.131777E+01
  atom #   10
   Hellmann-Feynman              : -0.158461E-06 -0.142674E+02  0.504253E+01
   Ionic forces                  :  0.000000E+00  0.000000E+00  0.000000E+00
   Multipole                     : -0.780061E-08  0.246065E+00 -0.856875E-01
   Pulay + GGA                   :  0.339586E-06  0.152642E+02 -0.539616E+01
   Van der Waals                 :  0.000000E+00  0.000000E+00  0.000000E+00
   ----------------------------------------------------------------
   Total forces(  10)            :  0.173324E-06  0.124287E+01 -0.439322E+00
  atom #   11
   Hellmann-Feynman              :  0.123533E+02  0.713225E+01  0.504125E+01
   Ionic forces                  :  0.000000E+00  0.000000E+00  0.000000E+00
   Multipole                     : -0.211659E+00 -0.121603E+00 -0.862903E-01
   Pulay + GGA                   : -0.132177E+02 -0.763177E+01 -0.539424E+01
   Van der Waals                 :  0.000000E+00  0.000000E+00  0.000000E+00
   ----------------------------------------------------------------
   Total forces(  11)            : -0.107601E+01 -0.621123E+00 -0.439275E+00
  atom #   12
   Hellmann-Feynman              : -0.416468E-06  0.865285E-03  0.170430E-03
   Ionic forces                  :  0.000000E+00  0.000000E+00  0.000000E+00
   Multipole                     :  0.408656E-08  0.279200E-03 -0.135760E-02
   Pulay + GGA                   :  0.498589E-06 -0.107012E-02  0.117352E-02
   Van der Waals                 :  0.000000E+00  0.000000E+00  0.000000E+00
   ----------------------------------------------------------------
   Total forces(  12)            :  0.862083E-07  0.743647E-04 -0.136517E-04
  atom #   13
   Hellmann-Feynman              : -0.492579E-07  0.567838E-03 -0.908625E-03
   Ionic forces                  :  0.000000E+00  0.000000E+00  0.000000E+00
   Multipole                     :  0.775425E-10  0.241644E-05 -0.449669E-05
   Pulay + GGA                   :  0.120651E-07 -0.622591E-03  0.863846E-03
   Van der Waals                 :  0.000000E+00  0.000000E+00  0.000000E+00
   ----------------------------------------------------------------
   Total forces(  13)            : -0.371153E-07 -0.523372E-04 -0.492757E-04

  Timings for VdW correction (Tkatchenko-Scheffler 2009 or later):
  | CPU time:       49.927 s, Wall clock time:       49.928 s.
  Removing unitary transformations (pure translations, rotations) from forces on atoms.
  Atomic forces before filtering:
  | Net force on center of mass :   0.101688E-06  0.686740E-03 -0.156296E-03 eV/A
  Atomic forces after filtering:
  | Net force on center of mass :   0.151065E-15  0.545323E-16  0.612835E-16 eV/A

  Energy and forces in a compact form:
  | Total energy uncorrected      :         -0.772046883243034E+05 eV
  | Total energy corrected        :         -0.772046883243034E+05 eV  <-- do not rely on this value for anything but (periodic) metals
  | Electronic free energy        :         -0.772046883243034E+05 eV
  Total atomic forces (unitary forces cleaned) [eV/Ang]:
  |   1          0.838922430444736E-01          0.483605321705705E-01         -0.684970878697382E-01
  |   2         -0.838799457665812E-01         -0.484989848792708E-01          0.685615706077868E-01
  |   3         -0.838923313770145E-01          0.483605782560160E-01         -0.684971362918933E-01
  |   4          0.838798573287877E-01         -0.484989545737661E-01          0.685615115159885E-01
  |   5         -0.174711783480881E-07          0.968646834519472E-01          0.685138174330098E-01
  |   6         -0.345067551797423E-08         -0.969408007300892E-01         -0.685387003005675E-01
  |   7         -0.538169241126672E-06         -0.267378058486948E-04         -0.710878044747605E-05
  |   8          0.107601208438158E+01         -0.621176098463281E+00         -0.439263415338566E+00
  |   9          0.163693283336383E-06         -0.900030200303128E-06          0.131777866710822E+01
  |  10          0.165502237911651E-06          0.124281637945623E+01         -0.439309849087880E+00
  |  11         -0.107601171116434E+01         -0.621176072007817E+00         -0.439263387164374E+00
  |  12          0.783861261977150E-07          0.215385329178682E-04         -0.162890930914394E-05
  |  13         -0.449374504818870E-07         -0.105163377403920E-03         -0.372529222282142E-04

  ------------------------------------ 
  Start decomposition of the XC Energy 
  ------------------------------------ 
  X and C from original XC functional choice 
  Hartree-Fock Energy :          0.000000000 Ha              0.000000000 eV
  X Energy            :       -185.361029350 Ha          -5043.930240948 eV
  C Energy            :         -4.798234983 Ha           -130.566617038 eV
  Total XC Energy     :       -190.159264332 Ha          -5174.496857986 eV
  ------------------------------------ 
  LDA X and C from self-consistent density 
  X Energy LDA        :       -171.381974602 Ha          -4663.540807252 eV
  C Energy LDA        :         -9.760135156 Ha           -265.586790492 eV
  ------------------------------------ 
  End decomposition of the XC Energy 
  ------------------------------------ 

------------------------------------------------------------

------------------------------------------------------------------------------
  Final output of selected total energy values:

  The following output summarizes some interesting total energy values
  at the end of a run (AFTER all relaxation, molecular dynamics, etc.).

  | Total energy of the DFT / Hartree-Fock s.c.f. calculation      :         -77204.688324303 eV
  | Final zero-broadening corrected energy (caution - metals only) :         -77204.688324303 eV
  | For reference only, the value of 1 Hartree used in FHI-aims is :             27.211384500 eV

  Before relying on these values, please be sure to understand exactly which
  total energy value is referred to by a given number. Different objects may
  all carry the same name 'total energy'. Definitions:

  Total energy of the DFT / Hartree-Fock s.c.f. calculation:
  | Note that this energy does not include ANY quantities calculated after the
  | s.c.f. cycle, in particular not ANY RPA, MP2, etc. many-body perturbation terms.

  Final zero-broadening corrected energy:
  | For metallic systems only, a broadening of the occupation numbers at the Fermi
  | level can be extrapolated back to zero broadening by an electron-gas inspired
  | formula. For all systems that are not real metals, this value can be
  | meaningless and should be avoided.

------------------------------------------------------------------------------
  Methods described in the following list of references were used in this FHI-aims run.
  If you publish the results, please make sure to cite these reference if they apply.
  FHI-aims is an academic code, and for our developers (often, Ph.D. students
  and postdocs), scientific credit in the community is essential.
  Thank you for helping us!

  For any use of FHI-aims, please cite:

    Volker Blum, Ralf Gehrke, Felix Hanke, Paula Havu, Ville Havu,
    Xinguo Ren, Karsten Reuter, and Matthias Scheffler
    'Ab initio molecular simulations with numeric atom-centered orbitals'
    Computer Physics Communications 180, 2175-2196 (2009)
    http://dx.doi.org/10.1016/j.cpc.2009.06.022


  The provided symmetry information was generated with SPGlib:

    Atsushi Togo, Yusuke Seto, Dimitar Pashov
    SPGlib 1.7.3 obtained from http://spglib.sourceforge.net
    Copyright (C) 2008 Atsushi Togo


  The scalable eigensolver library ELPA was used in your run.
  ELPA is essential especially for large systems on hundreds or thousands of CPUs.
  For ELPA, please cite:

    Andreas Marek, Volker Blum, Rainer Johanni, Ville Havu, Bruno Lang,
    Thomas Auckenthaler, Alexander Heinecke, Hans-Joachim Bungartz, and Hermann Lederer,
    'The ELPA Library - Scalable Parallel Eigenvalue Solutions
    for Electronic Structure Theory and Computational Science'
    The Journal of Physics: Condensed Matter 26, 213201 (2014).
    http://dx.doi.org/10.1088/0953-8984/26/21/213201


  The ELSI infrastructure was used in your run to solve the Kohn-Sham electronic structure.
  Please check out http://elsi-interchange.org to learn more.
  If scalability is important for your project, please acknowledge ELSI by citing:

    V. W-z. Yu, F. Corsetti, A. Garcia, W. P. Huhn, M. Jacquelin, W. Jia,
    B. Lange, L. Lin, J. Lu, W. Mi, A. Seifitokaldani, A. Vazquez-Mayagoitia,
    C. Yang, H. Yang, and V. Blum
    'ELSI: A unified software interface for Kohn-Sham electronic structure solvers'
    Computer Physics Communications 222, 267-285 (2018).
    http://dx.doi.org/10.1016/j.cpc.2017.09.007


  For the real-space grid partitioning and parallelization used in this calculation, please cite:

    Ville Havu, Volker Blum, Paula Havu, and Matthias Scheffler,
    'Efficient O(N) integration for all-electron electronic structure calculation'
    'using numerically tabulated basis functions'
    Journal of Computational Physics 228, 8367-8379 (2009).
    http://dx.doi.org/10.1016/j.jcp.2009.08.008

  Of course, there are many other important community references, e.g., those cited in the
  above references. Our list is limited to references that describe implementations in the
  FHI-aims code. The reason is purely practical (length of this list) - please credit others as well.

------------------------------------------------------------
          Leaving FHI-aims.
          Date     :  20220223, Time     :  195326.459

          Computational steps:
          | Number of self-consistency cycles          :           22
          | Number of SCF (re)initializations          :            1

          Detailed time accounting                     :  max(cpu_time)    wall_clock(cpu1)
          | Total time                                 :     4740.959 s        4768.038 s
          | Preparation time                           :        0.314 s           0.315 s
          | Boundary condition initalization           :        0.538 s           0.538 s
          | Grid partitioning                          :        2.581 s           2.582 s
          | Preloading free-atom quantities on grid    :        0.014 s           0.014 s
          | Free-atom superposition energy             :        1.834 s           1.835 s
          | Total time for integrations                :     1181.029 s        1181.828 s
          | Total time for solution of K.-S. equations :       20.644 s          20.658 s
          | Total time for density & force components  :     2693.957 s        2719.853 s
          | Total time for mixing & preconditioning    :      204.374 s         204.500 s
          | Total time for Hartree multipole update    :        0.541 s           0.542 s
          | Total time for Hartree multipole sum       :      572.316 s         572.495 s
          | Total time for total energy evaluation     :        0.003 s           0.006 s
          | Total time for vdW correction              :       49.927 s          49.928 s

          Partial memory accounting:
          | Residual value for overall tracked memory usage across tasks :           0.000 MB (should be 0.000 MB)
          | Peak values for overall tracked memory usage (after allocating wave_pulay):
          |   Minimum:       95.894 MB (on task 1)
          |   Maximum:       95.894 MB (on task 1)
          |   Average:       95.894 MB
          | Largest tracked array allocation (hamiltonian_shell):
          |   Minimum:       19.294 MB (on task 1)
          |   Maximum:       19.294 MB (on task 1)
          |   Average:       19.294 MB
          Note:  These values currently only include a subset of arrays which are explicitly tracked.
          The "true" memory usage will be greater.

          Have a nice day.
------------------------------------------------------------
