  MPI-parallelism will be employed.
------------------------------------------------------------
          Invoking FHI-aims ...
          Version 171221_1
          Compiled on 2020/09/23 at 19:46:43 on host login.service.

          When using FHI-aims, please cite the following reference:

          Volker Blum, Ralf Gehrke, Felix Hanke, Paula Havu,
          Ville Havu, Xinguo Ren, Karsten Reuter, and Matthias Scheffler,
          'Ab Initio Molecular Simulations with Numeric Atom-Centered Orbitals',
          Computer Physics Communications 180, 2175-2196 (2009)

          For any questions about FHI-aims, please visit the aimsclub website
          with its forums and wiki. Contributions to both the forums and the
          wiki are warmly encouraged - they are for you, and everyone is welcome there.

------------------------------------------------------------



  Date     :  20220704, Time     :  055513.120
  Time zero on CPU 1             :   0.842740000000000E-01  s.
  Internal wall clock time zero  :           426146113.120  s.

  FHI-aims created a unique identifier for this run for later identification
  aims_uuid : 9FC4BBB9-DEA3-4F39-A038-A00624D6475D

  Using       20 parallel tasks.
  Task        0 on host node042 reporting.
  Task        1 on host node042 reporting.
  Task        2 on host node042 reporting.
  Task        3 on host node042 reporting.
  Task        4 on host node042 reporting.
  Task        5 on host node042 reporting.
  Task        6 on host node042 reporting.
  Task        7 on host node042 reporting.
  Task        8 on host node042 reporting.
  Task        9 on host node042 reporting.
  Task       10 on host node042 reporting.
  Task       11 on host node042 reporting.
  Task       12 on host node042 reporting.
  Task       13 on host node042 reporting.
  Task       14 on host node042 reporting.
  Task       15 on host node042 reporting.
  Task       16 on host node042 reporting.
  Task       17 on host node042 reporting.
  Task       18 on host node042 reporting.
  Task       19 on host node042 reporting.

  Performing system and environment tests:
  *** Environment variable OMP_NUM_THREADS is not set
  *** For performance reasons you might want to set it to 1
  | Maximum stacksize for task 0: unlimited
  | Maximum stacksize for task 1: unlimited
  | Maximum stacksize for task 2: unlimited
  | Maximum stacksize for task 3: unlimited
  | Maximum stacksize for task 4: unlimited
  | Maximum stacksize for task 5: unlimited
  | Maximum stacksize for task 6: unlimited
  | Maximum stacksize for task 7: unlimited
  | Maximum stacksize for task 8: unlimited
  | Maximum stacksize for task 9: unlimited
  | Maximum stacksize for task 10: unlimited
  | Maximum stacksize for task 11: unlimited
  | Maximum stacksize for task 12: unlimited
  | Maximum stacksize for task 13: unlimited
  | Maximum stacksize for task 14: unlimited
  | Maximum stacksize for task 15: unlimited
  | Maximum stacksize for task 16: unlimited
  | Maximum stacksize for task 17: unlimited
  | Maximum stacksize for task 18: unlimited
  | Maximum stacksize for task 19: unlimited
  | Current stacksize for task 0: unlimited
  | Current stacksize for task 1: unlimited
  | Current stacksize for task 2: unlimited
  | Current stacksize for task 3: unlimited
  | Current stacksize for task 4: unlimited
  | Current stacksize for task 5: unlimited
  | Current stacksize for task 6: unlimited
  | Current stacksize for task 7: unlimited
  | Current stacksize for task 8: unlimited
  | Current stacksize for task 9: unlimited
  | Current stacksize for task 10: unlimited
  | Current stacksize for task 11: unlimited
  | Current stacksize for task 12: unlimited
  | Current stacksize for task 13: unlimited
  | Current stacksize for task 14: unlimited
  | Current stacksize for task 15: unlimited
  | Current stacksize for task 16: unlimited
  | Current stacksize for task 17: unlimited
  | Current stacksize for task 18: unlimited
  | Current stacksize for task 19: unlimited
  | Checking for scalapack...
  | Testing pdtran()...
  | All pdtran() tests passed.

  Obtaining array dimensions for all initial allocations:
  
  -----------------------------------------------------------------------
  Parsing control.in (first pass over file, find array dimensions only).
  The contents of control.in will be repeated verbatim below
  unless switched off by setting 'verbatim_writeout .false.' .
  in the first line of control.in .
  -----------------------------------------------------------------------
  
  #===============================================================================
  # FHI-aims file: ./control.in
  # Created using the Atomic Simulation Environment (ASE)
  # Wed Mar 24 12:41:28 2021
  #===============================================================================
  xc                                 pbe
  sc_accuracy_etot                   1e-06
  sc_accuracy_eev                    0.001
  sc_accuracy_rho                    1e-06
  sc_accuracy_forces                 0.0001
  friction_temperature               300  # default 300
  
    k_grid                           1  1  2
  
  
  
  ################################################################################
  #
  #  FHI-aims code project
  # Volker Blum, Fritz Haber Institute Berlin, 2009
  #
  #  Suggested "tight" defaults for Li atom (to be pasted into control.in file)
  #
  #  2016/03/22: Increased cutoff radius to 5.0 AA (Xinguo Ren, Aug 15, 2015)
  #
  ################################################################################
    species        Li
  #     global species definitions
      nucleus             3
      mass                6.941
  #
      l_hartree           6
  #
      cut_pot             5.0  2.0  1.0
      basis_dep_cutoff    1e-4
  #
      radial_base         29 7.0
      radial_multiplier   2
      angular_grids       specified
        division   0.4484  110
        division   0.5659  194
        division   0.6315  302
        division   0.6662  434
  #      division   0.8186  590
  #      division   0.9037  770
  #      division   6.2760  974
  #      outer_grid   974
        outer_grid  434
  ################################################################################
  #
  #  Definition of "minimal" basis
  #
  ################################################################################
  #     valence basis states
      valence      2  s   1.
  #     ion occupancy
      ion_occ      1  s   2.
  ################################################################################
  #
  #  Suggested additional basis functions. For production calculations,
  #  uncomment them one after another (the most important basis functions are
  #  listed first).
  #
  #  Constructed for dimers: 1.80 A, 2.25 A, 2.75 A, 3.50 A, 4.50 A
  #
  ################################################################################
  #  "First tier" - improvements: -189.23 meV to -6.35 meV
       hydro 2 p 1.6
       hydro 2 s 2
       hydro 3 d 2.6
  #  "Second tier" - improvements: -4.69 meV to -0.41 meV
       hydro 3 p 4.6
       hydro 2 p 1.8
       hydro 3 s 6.2
       hydro 4 d 4.7
       hydro 4 f 4.1
  #  "Third tier" - improvements: -0.20 meV to -0.15 meV
  #     hydro 4 d 0.95
  #     hydro 3 p 6.2
  #     hydro 3 s 1.7
  #  Further functions, listed for completeness
  #     VB: The following functions are only listed for completeness; test very
  #         carefully before any kind of production use. From the point of view
  #         of the basis construction, their main role is to fill up space,
  #         and they are solely determined by the location of the cutoff potential.
  #     hydro 3 p 0.1  # -0.15 meV
  #     hydro 4 d 5    # -0.12 meV
  #     hydro 4 f 0.1  # -0.14 meV
  #     hydro 5 g 0.1  # -0.06 meV
  
  
  ################################################################################
  #
  # For methods that use the localized form of the "resolution of identity" for
  # the two-electron Coulomb operator (RI_method LVL), particularly Hartree-Fock and
  # hybrid density functional calculations, the highest accuracy can be obtained by
  # uncommenting the line beginning with "for_aux"  below, thus adding an extra g radial
  # function to the construction of the product basis set for the expansion.
  # See Ref. New J. Phys. 17, 093020 (2015) for more information, particularly Figs. 1 and 6.
  #
  ################################################################################
  #
  # for_aux hydro 5 g 6.0
  ################################################################################
  #
  #  FHI-aims code project
  # Volker Blum, Fritz Haber Institute Berlin, 2010
  #
  #  Suggested "tight" defaults for P atom (to be pasted into control.in file)
  #
  #  Revised Jan 04, 2011, following tests (SiC) done by Lydia Nemec:
  #     d function of tier 2 now enabled by default.
  #
  ################################################################################
    species        P
  #     global species definitions
      nucleus             15
      mass                30.973762
  #
      l_hartree           6
  #
      cut_pot             4.0          2.0  1.0
      basis_dep_cutoff    1e-4
  #
      radial_base         43 7.0
      radial_multiplier   2
      angular_grids       specified
        division   0.2995   50
        division   0.5998  110
        division   0.9240  194
        division   1.0921  302
        division   1.2863  434
  #      division   1.3165  590
  #      division   1.4113  770
  #      division   1.5128  974
  #      division   2.4980 1202
        outer_grid  434
  ################################################################################
  #
  #  Definition of "minimal" basis
  #
  ################################################################################
  #     valence basis states
      valence      3  s   2.
      valence      3  p   3.
  #     ion occupancy
      ion_occ      3  s   1.
      ion_occ      3  p   2.
  ################################################################################
  #
  #  Suggested additional basis functions. For production calculations,
  #  uncomment them one after another (the most important basis functions are
  #  listed first).
  #
  #  Constructed for dimers: 1.625 A, 1.875 A, 2.5 A, 3.25 A, 4.0 A
  #
  ################################################################################
  #  "First tier" - improvements: -726.20 meV to -35.91 meV
       ionic 3 d auto
       ionic 3 p auto
       hydro 4 f 6.2
       hydro 5 g 8.6
       ionic 3 s auto
  #  "Second tier" - improvements: -16.02 meV to -1.71 meV
       hydro 4 d 6.2
  #     hydro 4 p 9.2
  #     hydro 5 f 9.8
  #     hydro 1 s 0.7
  #     hydro 5 g 13.2
  #  "Third tier" - improvements: -1.82 meV to -0.20 meV
  #     hydro 3 p 2.5
  #     hydro 4 d 6.4
  #     hydro 5 f 11.2
  #     hydro 2 s 1.5
  #  "Fourth tier" - improvements: -0.91 meV to -0.17 meV
  #     hydro 3 d 16.8
  #     hydro 5 g 18
  #     hydro 4 p 4.5
  #     hydro 3 s 2.1
  #  Further basis functions that fell out of the optimization - < -0.09 meV
  #     hydro 4 p 10.4
  #     hydro 4 d 17.6
  #     hydro 4 s 11.2
  ################################################################################
  #
  # For methods that use the localized form of the "resolution of identity" for
  # the two-electron Coulomb operator (RI_method LVL), particularly Hartree-Fock and
  # hybrid density functional calculations, the highest accuracy can be obtained by
  # uncommenting the line beginning with "for_aux"  below, thus adding an extra g radial
  # function to the construction of the product basis set for the expansion.
  # See Ref. New J. Phys. 17, 093020 (2015) for more information, particularly Figs. 1 and 6.
  #
  ################################################################################
  #
  # for_aux hydro 5 g 6.0
  ################################################################################
  #
  #  FHI-aims code project
  # Volker Blum, Fritz Haber Institute Berlin, 2009
  #
  #  Suggested "tight" defaults for S atom (to be pasted into control.in file)
  #
  #  Revised Jan 04, 2011, following tests (SiC) done by Lydia Nemec:
  #     d and g functions of tier 2 now enabled by default.
  #
  ################################################################################
    species        S
  #     global species definitions
      nucleus             16
      mass                32.065
  #
      l_hartree           6
  #
      cut_pot             4.0          2.0  1.0
      basis_dep_cutoff    1e-4
  #
      radial_base         44 7.0
      radial_multiplier   2
      angular_grids       specified
        division   0.4665  110
        division   0.5810  194
        division   0.7139  302
        division   0.8274  434
  #      division   0.9105  590
  #      division   1.0975  770
  #      division   1.2028  974
  #      outer_grid  974
        outer_grid  434
  ################################################################################
  #
  #  Definition of "minimal" basis
  #
  ################################################################################
  #     valence basis states
      valence      3  s   2.
      valence      3  p   4.
  #     ion occupancy
      ion_occ      3  s   1.
      ion_occ      3  p   3.
  ################################################################################
  #
  #  Suggested additional basis functions. For production calculations,
  #  uncomment them one after another (the most important basis functions are
  #  listed first).
  #
  #  Constructed for dimers: 1.6 A, 1.9 A, 2.5 A, 3.25 A, 4.0 A
  #
  ################################################################################
  #  "First tier" - improvements: -652.81 meV to -45.53 meV
       ionic 3 d auto
       hydro 2 p 1.8
       hydro 4 f 7
       ionic 3 s auto
  #  "Second tier" - improvements: -30.20 meV to -1.74 meV
       hydro 4 d 6.2
       hydro 5 g 10.8
  #     hydro 4 p 4.9
  #     hydro 5 f 10
  #     hydro 1 s 0.8
  #  "Third tier" - improvements: -1.04 meV to -0.20 meV
  #     hydro 3 d 3.9
  #     hydro 3 d 2.7
  #     hydro 5 g 12
  #     hydro 4 p 10.4
  #     hydro 5 f 12.4
  #     hydro 2 s 1.9
  #  "Fourth tier" - improvements: -0.35 meV to -0.06 meV
  #     hydro 4 d 10.4
  #     hydro 4 p 7.2
  #     hydro 4 d 10
  #     hydro 5 g 19.2
  #     hydro 4 s 12
  
  ################################################################################
  #
  # For methods that use the localized form of the "resolution of identity" for
  # the two-electron Coulomb operator (RI_method LVL), particularly Hartree-Fock and
  # hybrid density functional calculations, the highest accuracy can be obtained by
  # uncommenting the line beginning with "for_aux"  below, thus adding an extra g radial
  # function to the construction of the product basis set for the expansion.
  # See Ref. New J. Phys. 17, 093020 (2015) for more information, particularly Figs. 1 and 6.
  #
  ################################################################################
  #
  # for_aux hydro 5 g 6.0
  ################################################################################
  #
  #  FHI-aims code project
  # Volker Blum, Fritz Haber Institute Berlin, 2009
  #
  #  Suggested "tight" defaults for Cl atom (to be pasted into control.in file)
  #
  #  Revised Jan 04, 2011, following tests (SiC) done by Lydia Nemec:
  #     d function of tier 2 now enabled by default.
  #
  ################################################################################
    species        Cl
  #     global species definitions
      nucleus             17
      mass                35.453
  #
      l_hartree           6
  #
      cut_pot             4.0          2.0  1.0
      basis_dep_cutoff    1e-4
  #
      radial_base         45 7.0
      radial_multiplier   2
      angular_grids       specified
        division   0.4412  110
        division   0.5489  194
        division   0.6734  302
        division   0.7794  434
  #      division   0.9402  590
  #      division   1.0779  770
  #      division   1.1792  974
  #      outer_grid  974
        outer_grid  434
  ################################################################################
  #
  #  Definition of "minimal" basis
  #
  ################################################################################
  #     valence basis states
      valence      3  s   2.
      valence      3  p   5.
  #     ion occupancy
      ion_occ      3  s   1.
      ion_occ      3  p   4.
  ################################################################################
  #
  #  Suggested additional basis functions. For production calculations,
  #  uncomment them one after another (the most important basis functions are
  #  listed first).
  #
  #  Constructed for dimers: 1.65 A, 2.0 A, 2.5 A, 3.25 A, 4.0 A
  #
  ################################################################################
  #  "First tier" - improvements: -429.57 meV to -15.03 meV
       ionic 3 d auto
       hydro 2 p 1.9
       hydro 4 f 7.4
       ionic 3 s auto
       hydro 5 g 10.4
  #  "Second tier" - improvements: -7.84 meV to -0.48 meV
       hydro 3 d 3.3
  #     hydro 5 f 9.8
  #     hydro 1 s 0.75
  #     hydro 5 g 11.2
  #     hydro 4 p 10.4
  #  "Third tier" - improvements: -1.00 meV to -0.12 meV
  #     hydro 4 d 12.8
  #     hydro 4 f 4.6
  #     hydro 4 d 10.8
  #     hydro 2 s 1.8
  #     hydro 3 p 3
  #  Further functions that fell out - improvements: -0.10 meV and below
  #     hydro 5 f 14.4
  #     hydro 4 s 12.8
  #     hydro 3 d 11.6
  #     hydro 4 s 4.1
  ################################################################################
  #
  # For methods that use the localized form of the "resolution of identity" for
  # the two-electron Coulomb operator (RI_method LVL), particularly Hartree-Fock and
  # hybrid density functional calculations, the highest accuracy can be obtained by
  # uncommenting the line beginning with "for_aux"  below, thus adding an extra g radial
  # function to the construction of the product basis set for the expansion.
  # See Ref. New J. Phys. 17, 093020 (2015) for more information, particularly Figs. 1 and 6.
  #
  ################################################################################
  #
  # for_aux hydro 5 g 6.0
  
  -----------------------------------------------------------------------
  Completed first pass over input file control.in .
  -----------------------------------------------------------------------
  
  
  -----------------------------------------------------------------------
  Parsing geometry.in (first pass over file, find array dimensions only).
  The contents of geometry.in will be repeated verbatim below
  unless switched off by setting 'verbatim_writeout .false.' .
  in the first line of geometry.in .
  -----------------------------------------------------------------------
  
  #=======================================================
  # FHI-aims file: ./data/test_rep/geometry.in.7
  # Created using the Atomic Simulation Environment (ASE)
  # Mon Jul  4 10:21:46 2022
  #=======================================================
  lattice_vector 20.1964641952679997 0.0000000000000000 0.0000000000000000
  lattice_vector 0.0000000000000000 16.7660107040219977 0.0000000000000000
  lattice_vector 0.0000000000000000 0.0000000000000000 7.7511575031540003
  atom 2.7875504744400001 2.4813578739600000 4.8037989819000000 Li
  atom 1.8031275695400000 8.4132341494799991 4.3602044294999995 Li
  atom 9.2457529321800003 3.7920771254400001 2.9211496705199997 Li
  atom 7.0538436161400000 1.4393695207799999 6.5325717562800003 Li
  atom 8.3016517115399999 0.9563314133400000 3.1658122673399998 Li
  atom 6.8971812867600004 6.1286645052599997 3.5684692513200003 Li
  atom 12.9222180801000004 2.4748664623800001 2.6715387701399997 Li
  atom 12.3211784656199992 8.7297286255200017 4.5143145097800002 Li
  atom 19.8223884085200019 4.7471438224200000 4.3868122208999996 Li
  atom 14.3650880174999998 2.9989119745800004 6.4983889318200001 Li
  atom 18.3776152582200005 1.0700713348800002 4.7274360250200003 Li
  atom 16.3848528913200013 7.4606412992999998 5.5088015017199998 Li
  atom 3.5545584178800000 11.3931075986400003 4.7424396375000004 Li
  atom 1.3990013979600000 16.7009282003999999 4.4292709418399996 Li
  atom 9.4005451537800013 12.7333168902000011 4.1675520447599999 Li
  atom 6.7779512131799997 9.0250332625200009 4.8751168443599999 Li
  atom 8.5383699557400003 9.3888880868399998 2.2863317146199997 Li
  atom 6.7368792577200001 14.8482963782400006 4.7321840505599999 Li
  atom 12.8328621847199997 11.3627129124000010 2.6899794684599998 Li
  atom 11.6903555600399987 16.6660824891600008 3.5564153095199997 Li
  atom 0.1701188925600000 13.1520170594400003 4.5506405766000002 Li
  atom 16.6791273681000014 10.6539356122800015 6.4710132874799999 Li
  atom 18.8420184083399995 9.0541597970400005 3.3354429430199999 Li
  atom 16.9737702086999995 15.4014057163799993 5.3772081591000003 Li
  atom 9.3629521898400014 7.3584166198199998 4.6101190981199993 P
  atom 4.8118109503199999 0.6620056836000000 3.4757365337400001 P
  atom 19.6446962413800001 8.1617862005399999 6.5208982765199996 P
  atom 15.2674756547400001 1.1798483422199999 2.9990400161999999 P
  atom 9.4956666634199998 16.0400608806600005 5.4176091095999999 P
  atom 4.5461875891200005 8.7189908019599986 2.8161835237800004 P
  atom 19.6540124725799998 16.3925073293400025 6.6507105900000001 P
  atom 15.1514170008600004 9.1452049480800000 3.3843556425600001 P
  atom 1.2318543947400000 0.7528260480600000 6.8974365009600005 S
  atom 2.9864984940000001 0.4253110003800000 2.5717316008200002 S
  atom 5.6124970915800008 2.6701889215200003 2.3578921300200002 S
  atom 9.2237064818400007 6.3194509958400005 2.6997991533000003 S
  atom 8.0007466880399996 15.8158847053800002 6.7985891475600004 S
  atom 6.3667218503400003 7.8803253105600000 2.3014450536000002 S
  atom 11.1146860954800015 6.6374104927799999 5.6284506300600006 S
  atom 4.6799234896800002 1.2658088921999999 5.5180596204599999 S
  atom 0.3822153384000000 2.7066223219199999 2.3248955023200000 S
  atom 1.3003614727800001 4.6861106128200003 2.4360922497000002 S
  atom 7.3544639413199997 2.2512778948199998 1.3508325956400000 S
  atom 7.8647873629200005 3.1071733700399999 4.8777197803200005 S
  atom 11.4230318261999990 4.7633959597800004 4.5280342095000004 S
  atom 6.1831105823999994 3.9508682499000001 4.2312768548399999 S
  atom 3.1770647339400004 4.6178687215199998 3.4471573669200000 S
  atom 3.0517843467600003 5.9065219702800000 5.2791291196800003 S
  atom 0.3983714284800000 2.2601034958200001 4.3342619249399998 S
  atom 2.3079863278800001 4.7721446130000000 6.7897131075599999 S
  atom 10.1208407233199988 1.2339486852599999 5.2256428023599995 S
  atom 14.3481757881600007 1.0644402229200001 1.1657188615800000 S
  atom 16.2673508772600002 3.2430333206399999 3.0632404604400003 S
  atom 19.5330603595200003 7.1619659141999996 4.5482672569200000 S
  atom 17.9136394585199987 0.5514274621800000 7.1356615197600002 S
  atom 16.5026137232399996 7.7251010516400003 2.9821109986799996 S
  atom 19.7544638208600034 6.5788521285600003 0.1846429653000000 S
  atom 13.7857060242599996 1.3048612915200000 4.5314091559199996 S
  atom 10.5000591558600007 1.7295377162399999 0.3781888241400000 S
  atom 10.3259627478000002 3.7324177477200000 0.1141899251400000 S
  atom 17.5910334760199980 3.4262086477199998 4.6407892996200006 S
  atom 16.6265934023399993 4.1125334538600002 6.6062366040600002 S
  atom 0.1606927757400000 4.8301428513600007 6.8454295233000000 S
  atom 15.1936187256600004 5.3820619851600000 6.1981078647599999 S
  atom 12.3958600004400008 4.4645002220399999 7.7442995008200004 S
  atom 12.8322277804200002 5.9006833719599996 1.6335349500600000 S
  atom 10.6070134478400000 1.7139205288800001 2.4867624153599999 S
  atom 13.2338008369200004 5.0333345513400003 3.4065792373199999 S
  atom 1.1044143840000000 9.4366041958200011 6.7494013244400000 S
  atom 2.8456101973800001 7.8669117750600002 1.9325311812600001 S
  atom 4.7925422771999999 10.7583808072800000 2.1068651840400001 S
  atom 9.1324949249399996 14.9335094273399989 3.5562621555000002 S
  atom 7.7133838465200002 7.1159441720999999 5.8308896669400001 S
  atom 6.2389243102199998 16.1376226770600013 2.8466576037600002 S
  atom 11.4688702396200011 15.5098722246600005 6.1103680349400005 S
  atom 4.3424472291000002 9.0999671820600003 4.9095916570800000 S
  atom 1.3103185791600001 11.3354361417600007 2.0746241651999999 S
  atom 1.6770085822200000 13.4374173159000012 2.4813456380400001 S
  atom 6.8020573689000008 11.4231345299999987 2.3686871072400000 S
  atom 7.1581507449600004 11.5707758559599991 4.5394244811600002 S
  atom 11.3509565249999991 13.3848474502200006 5.6999075562599995 S
  atom 5.7508242967200003 12.7507662290999999 5.5379618706600002 S
  atom 3.5111417557799998 13.6447287632400016 3.6369905971200001 S
  atom 3.0939782461200003 14.8888242912000006 5.4317806499400003 S
  atom 0.9158241870000000 10.7118359153400000 4.0165401695999998 S
  atom 2.6140051071000001 13.7475880183800001 7.0341183675599996 S
  atom 9.9247171265999992 9.3956975354400001 4.5920570135999998 S
  atom 13.3816844332800002 9.0307524402600006 2.3091427498200003 S
  atom 15.9185284722600002 11.0506584688200000 2.6265688214400003 S
  atom 19.4604252894599981 15.3855653030399999 4.6732035695400000 S
  atom 17.8533590191200027 8.8381141876200005 7.3201525866599999 S
  atom 16.6740894524400005 16.5824044145999991 3.1874685197399999 S
  atom 19.6528062623999986 14.8264469806800001 0.3017960098200000 S
  atom 14.6337070432199994 9.3713128320000010 5.4317150455800007 S
  atom 10.6708282525199998 12.5471233300799998 0.8513911684800001 S
  atom 11.8244435727599999 14.3008232724599988 1.5015603375600000 S
  atom 17.9479394197800026 11.2895098359600006 2.8489255860000000 S
  atom 18.2023451422800022 11.9432119443599998 5.0952807017400001 S
  atom 0.4970134977000000 13.2829195723800009 7.0248108145200003 S
  atom 16.5792815336399997 12.9631732700400004 5.8364896291199999 S
  atom 13.8016865101199997 13.6443959851799992 1.7779547070000001 S
  atom 14.1517861509599996 14.3306503378799999 3.8256965345400000 S
  atom 10.4089649703599996 11.2843752681599998 2.4111312748200002 S
  atom 13.3735479279600007 12.9121243875600005 5.0554489418399999 S
  
  -----------------------------------------------------------------------
  Completed first pass over input file geometry.in .
  -----------------------------------------------------------------------
  

  Basic array size parameters:
  | Number of species                 :        4
  | Number of atoms                   :      104
  | Number of lattice vectors         :        3
  | Max. basis fn. angular momentum   :        4
  | Max. atomic/ionic basis occupied n:        3
  | Max. number of basis fn. types    :        3
  | Max. radial fns per species/type  :        8
  | Max. logarithmic grid size        :     1362
  | Max. radial integration grid size :       91
  | Max. angular integration grid size:      434
  | Max. angular grid division number :        8
  | Radial grid for Hartree potential :     1362
  | Number of spin channels           :        1

------------------------------------------------------------
          Reading file control.in.
------------------------------------------------------------
  XC: Using PBE gradient-corrected functionals.
  Convergence accuracy of total energy:  0.1000E-05
  Convergence accuracy of sum of eigenvalues:  0.1000E-02
  Convergence accuracy of self-consistent charge density:  0.1000E-05
  Convergence accuracy of forces:  0.1000E-03
  Friction is calculated at temperature of   0.3000E+03 K
  Found k-point grid:         1         1         2
 
  Reading configuration options for species Li                  .
  | Found nuclear charge :   3.0000
  | Found atomic mass :    6.94100000000000      amu
  | Found l_max for Hartree potential  :   6
  | Found cutoff potl. onset [A], width [A], scale factor :    5.00000    2.00000    1.00000
  | Threshold for basis-dependent cutoff potential is   0.100000E-03
  | Found data for basic radial integration grid :    29 points, outermost radius =    7.000 A
  | Found multiplier for basic radial grid :   2
  | Found angular grid specification: user-specified.
  | Specified grid contains     5 separate shells.
  | Check grid settings after all constraints further below.
  | Found free-atom valence shell :  2 s   1.000
  | Found free-ion valence shell :  1 s   2.000
  | Found hydrogenic basis function :  2 p   1.600
  | Found hydrogenic basis function :  2 s   2.000
  | Found hydrogenic basis function :  3 d   2.600
  | Found hydrogenic basis function :  3 p   4.600
  | Found hydrogenic basis function :  2 p   1.800
  | Found hydrogenic basis function :  3 s   6.200
  | Found hydrogenic basis function :  4 d   4.700
  | Found hydrogenic basis function :  4 f   4.100
  Species Li                  : Missing cutoff potential type.
  Defaulting to exp(1/x)/(1-x)^2 type cutoff potential.
  Species Li: No 'logarithmic' tag. Using default grid for free atom:
  | Default logarithmic grid data [bohr] : 0.1000E-03 0.1000E+03 0.1012E+01
  Species Li: On-site basis accuracy parameter (for Gram-Schmidt orthonormalisation) not specified.
  Using default value basis_acc =  0.1000000E-03.
  Species Li                  : Using default innermost maximum threshold i_radial=  2 for radial functions.
  Species Li                  : Default cutoff onset for free atom density etc. : 0.50000000E+01 AA.
  Species Li                  : Basic radial grid will be enhanced according to radial_multiplier =   2, to contain    59 grid points.
 
  Reading configuration options for species P                   .
  | Found nuclear charge :  15.0000
  | Found atomic mass :    30.9737620000000      amu
  | Found l_max for Hartree potential  :   6
  | Found cutoff potl. onset [A], width [A], scale factor :    4.00000    2.00000    1.00000
  | Threshold for basis-dependent cutoff potential is   0.100000E-03
  | Found data for basic radial integration grid :    43 points, outermost radius =    7.000 A
  | Found multiplier for basic radial grid :   2
  | Found angular grid specification: user-specified.
  | Specified grid contains     6 separate shells.
  | Check grid settings after all constraints further below.
  | Found free-atom valence shell :  3 s   2.000
  | Found free-atom valence shell :  3 p   3.000
  | Found free-ion valence shell :  3 s   1.000
  | Found free-ion valence shell :  3 p   2.000
  | Found ionic basis function :  3 d , default cutoff radius.
  | Found ionic basis function :  3 p , default cutoff radius.
  | Found hydrogenic basis function :  4 f   6.200
  | Found hydrogenic basis function :  5 g   8.600
  | Found ionic basis function :  3 s , default cutoff radius.
  | Found hydrogenic basis function :  4 d   6.200
  Species P                   : Missing cutoff potential type.
  Defaulting to exp(1/x)/(1-x)^2 type cutoff potential.
  Species P : No 'logarithmic' tag. Using default grid for free atom:
  | Default logarithmic grid data [bohr] : 0.1000E-03 0.1000E+03 0.1012E+01
  | Will include ionic basis functions of  2.0-fold positive P                    ion.
  Species P : On-site basis accuracy parameter (for Gram-Schmidt orthonormalisation) not specified.
  Using default value basis_acc =  0.1000000E-03.
  Species P                   : Using default innermost maximum threshold i_radial=  2 for radial functions.
  Species P                   : Default cutoff onset for free atom density etc. : 0.40000000E+01 AA.
  Species P                   : Basic radial grid will be enhanced according to radial_multiplier =   2, to contain    87 grid points.
 
  Reading configuration options for species S                   .
  | Found nuclear charge :  16.0000
  | Found atomic mass :    32.0650000000000      amu
  | Found l_max for Hartree potential  :   6
  | Found cutoff potl. onset [A], width [A], scale factor :    4.00000    2.00000    1.00000
  | Threshold for basis-dependent cutoff potential is   0.100000E-03
  | Found data for basic radial integration grid :    44 points, outermost radius =    7.000 A
  | Found multiplier for basic radial grid :   2
  | Found angular grid specification: user-specified.
  | Specified grid contains     5 separate shells.
  | Check grid settings after all constraints further below.
  | Found free-atom valence shell :  3 s   2.000
  | Found free-atom valence shell :  3 p   4.000
  | Found free-ion valence shell :  3 s   1.000
  | Found free-ion valence shell :  3 p   3.000
  | Found ionic basis function :  3 d , default cutoff radius.
  | Found hydrogenic basis function :  2 p   1.800
  | Found hydrogenic basis function :  4 f   7.000
  | Found ionic basis function :  3 s , default cutoff radius.
  | Found hydrogenic basis function :  4 d   6.200
  | Found hydrogenic basis function :  5 g  10.800
  Species S                   : Missing cutoff potential type.
  Defaulting to exp(1/x)/(1-x)^2 type cutoff potential.
  Species S : No 'logarithmic' tag. Using default grid for free atom:
  | Default logarithmic grid data [bohr] : 0.1000E-03 0.1000E+03 0.1012E+01
  | Will include ionic basis functions of  2.0-fold positive S                    ion.
  Species S : On-site basis accuracy parameter (for Gram-Schmidt orthonormalisation) not specified.
  Using default value basis_acc =  0.1000000E-03.
  Species S                   : Using default innermost maximum threshold i_radial=  2 for radial functions.
  Species S                   : Default cutoff onset for free atom density etc. : 0.40000000E+01 AA.
  Species S                   : Basic radial grid will be enhanced according to radial_multiplier =   2, to contain    89 grid points.
 
  Reading configuration options for species Cl                  .
  | Found nuclear charge :  17.0000
  | Found atomic mass :    35.4530000000000      amu
  | Found l_max for Hartree potential  :   6
  | Found cutoff potl. onset [A], width [A], scale factor :    4.00000    2.00000    1.00000
  | Threshold for basis-dependent cutoff potential is   0.100000E-03
  | Found data for basic radial integration grid :    45 points, outermost radius =    7.000 A
  | Found multiplier for basic radial grid :   2
  | Found angular grid specification: user-specified.
  | Specified grid contains     5 separate shells.
  | Check grid settings after all constraints further below.
  | Found free-atom valence shell :  3 s   2.000
  | Found free-atom valence shell :  3 p   5.000
  | Found free-ion valence shell :  3 s   1.000
  | Found free-ion valence shell :  3 p   4.000
  | Found ionic basis function :  3 d , default cutoff radius.
  | Found hydrogenic basis function :  2 p   1.900
  | Found hydrogenic basis function :  4 f   7.400
  | Found ionic basis function :  3 s , default cutoff radius.
  | Found hydrogenic basis function :  5 g  10.400
  | Found hydrogenic basis function :  3 d   3.300
  Species Cl                  : Missing cutoff potential type.
  Defaulting to exp(1/x)/(1-x)^2 type cutoff potential.
  Species Cl: No 'logarithmic' tag. Using default grid for free atom:
  | Default logarithmic grid data [bohr] : 0.1000E-03 0.1000E+03 0.1012E+01
  | Will include ionic basis functions of  2.0-fold positive Cl                   ion.
  Species Cl: On-site basis accuracy parameter (for Gram-Schmidt orthonormalisation) not specified.
  Using default value basis_acc =  0.1000000E-03.
  Species Cl                  : Using default innermost maximum threshold i_radial=  2 for radial functions.
  Species Cl                  : Default cutoff onset for free atom density etc. : 0.40000000E+01 AA.
  Species Cl                  : Basic radial grid will be enhanced according to radial_multiplier =   2, to contain    91 grid points.
 
  Finished reading input file 'control.in'. Consistency checks are next.
 
  MPI_IN_PLACE appears to work with this MPI implementation.
  | Keeping use_mpi_in_place .true. (see manual).
  Target number of points in a grid batch is not set. Defaulting to  100
  Method for grid partitioning is not set. Defaulting to parallel hash+maxmin partitioning.
  Batch size limit is not set. Defaulting to    200
  By default, will store active basis functions for each batch.
  If in need of memory, prune_basis_once .false. can be used to disable this option.
  communication_type for Hartree potential was not specified.
  Defaulting to calc_hartree .
  Defaulting to Pulay charge density mixer.
  Pulay mixer: Number of relevant iterations not set.
  Defaulting to    8 iterations.
  Pulay mixer: Number of initial linear mixing iterations not set.
  Defaulting to    0 iterations.
  Work space size for distributed Hartree potential not set.
  Defaulting to   0.200000E+03 MB.
  Mixing parameter for charge density mixing has not been set.
  Using default: charge_mix_param =     0.0500.
  The mixing parameter will be adjusted in iteration number     2 of the first full s.c.f. cycle only.
  Algorithm-dependent basis array size parameters:
  | n_max_pulay                         :        8
  Maximum number of self-consistency iterations not provided.
  Presetting  1000 iterations.
  Presetting      1001 iterations before the initial mixing cycle
  is restarted anyway using the sc_init_iter criterion / keyword.
  Presetting a factor      1.000 between actual scf density residual
  and density convergence criterion sc_accuracy_rho below which sc_init_iter
  takes no effect.
  Geometry relaxation not requested: no relaxation will be performed.
  Handling of forces: Unphysical translation and rotation will be removed from forces.
  No accuracy limit for integral partition fn. given. Defaulting to  0.1000E-14.
  No threshold value for u(r) in integrations given. Defaulting to  0.1000E-05.
  No occupation type (smearing scheme) given. Defaulting to Gaussian broadening, width =  0.1000E-01 eV.
  The width will be adjusted in iteration number     2 of the first full s.c.f. cycle only.
  S.C.F. convergence parameters will be adjusted in iteration number     2 of the first full s.c.f. cycle only.
  No accuracy for occupation numbers given. Defaulting to  0.1000E-12.
  No threshold value for occupation numbers given. Defaulting to  0.0000E+00.
  No accuracy for fermi level given. Defaulting to  0.1000E-19.
  Maximum # of iterations to find E_F not set. Defaulting to  200.
  Preferred method for the eigenvalue solver ('KS_method') not specified in 'control.in'.
  Calling BLACS routine to test compilation state
  Since ScaLAPACK support is enabled, defaulting to 'elsi'.
  Will not use alltoall communication since running on < 1024 CPUs.
  Threshold for basis singularities not set.
  Default threshold for basis singularities:  0.1000E-04
  partition_type (choice of integration weights) for integrals was not specified.
  | Using a version of the partition function of Stratmann and coworkers ('stratmann_smoother').
  | At each grid point, the set of atoms used to build the partition table is smoothly restricted to
  | only those atoms whose free-atom density would be non-zero at that grid point.
  Partitioning for Hartree potential was not defined. Using partition_type for integrals.
  | Adjusted default value of keyword multip_moments_threshold to:       0.10000000E-11
  | This value may affect high angular momentum components of the Hartree potential in periodic systems.
  Spin handling was not defined in control.in. Defaulting to unpolarized case.
  Angular momentum expansion for Kerker preconditioner not set explicitly.
  | Using default value of   0
  No explicit requirement for turning off preconditioner.
  | By default, it will be turned off when the charge convergence reaches
  | sc_accuracy_rho  =   0.100000E-05
  | sc_accuracy_eev  =   0.100000E-02
  | sc_accuracy_etot =   0.100000E-05
  No special mixing parameter while Kerker preconditioner is on.
  Using default: charge_mix_param =     0.0500.
  No q(lm)/r^(l+1) cutoff set for long-range Hartree potential.
  | Using default value of  0.100000E-09 .
  | Verify using the multipole_threshold keyword.
  Defaulting to new monopole extrapolation.
  Density update method: automatic selection selected.
  Using density matrix based charge density update.
  Using density matrix based charge density update.
  Using packed matrix style: index .
  Defaulting to use time-reversal symmetry for k-point grid.
------------------------------------------------------------


------------------------------------------------------------
          Reading geometry description geometry.in.
------------------------------------------------------------
 * Warning! You did not set the 'relativistic' flag in input file 'control.in'.
 * Since you are not attempting to treat any elements beyond Ca(Z=20), FHI-aims
 * will default to 'relativistic none'.
 * You must ensure that this is really what you want!!
 * For example, DO NOT compute total-energy differences between results from
 * different settings of the 'relativistic' flag.
  Input structure read successfully.
  The structure contains      104 atoms,  and a total of       1344.000 electrons.

  Input geometry:
  | Unit cell:
  |       20.19646420        0.00000000        0.00000000
  |        0.00000000       16.76601070        0.00000000
  |        0.00000000        0.00000000        7.75115750
  | Atomic structure:
  |       Atom                x [A]            y [A]            z [A]
  |    1: Species Li            2.78755047        2.48135787        4.80379898
  |    2: Species Li            1.80312757        8.41323415        4.36020443
  |    3: Species Li            9.24575293        3.79207713        2.92114967
  |    4: Species Li            7.05384362        1.43936952        6.53257176
  |    5: Species Li            8.30165171        0.95633141        3.16581227
  |    6: Species Li            6.89718129        6.12866451        3.56846925
  |    7: Species Li           12.92221808        2.47486646        2.67153877
  |    8: Species Li           12.32117847        8.72972863        4.51431451
  |    9: Species Li           19.82238841        4.74714382        4.38681222
  |   10: Species Li           14.36508802        2.99891197        6.49838893
  |   11: Species Li           18.37761526        1.07007133        4.72743603
  |   12: Species Li           16.38485289        7.46064130        5.50880150
  |   13: Species Li            3.55455842       11.39310760        4.74243964
  |   14: Species Li            1.39900140       16.70092820        4.42927094
  |   15: Species Li            9.40054515       12.73331689        4.16755204
  |   16: Species Li            6.77795121        9.02503326        4.87511684
  |   17: Species Li            8.53836996        9.38888809        2.28633171
  |   18: Species Li            6.73687926       14.84829638        4.73218405
  |   19: Species Li           12.83286218       11.36271291        2.68997947
  |   20: Species Li           11.69035556       16.66608249        3.55641531
  |   21: Species Li            0.17011889       13.15201706        4.55064058
  |   22: Species Li           16.67912737       10.65393561        6.47101329
  |   23: Species Li           18.84201841        9.05415980        3.33544294
  |   24: Species Li           16.97377021       15.40140572        5.37720816
  |   25: Species P             9.36295219        7.35841662        4.61011910
  |   26: Species P             4.81181095        0.66200568        3.47573653
  |   27: Species P            19.64469624        8.16178620        6.52089828
  |   28: Species P            15.26747565        1.17984834        2.99904002
  |   29: Species P             9.49566666       16.04006088        5.41760911
  |   30: Species P             4.54618759        8.71899080        2.81618352
  |   31: Species P            19.65401247       16.39250733        6.65071059
  |   32: Species P            15.15141700        9.14520495        3.38435564
  |   33: Species S             1.23185439        0.75282605        6.89743650
  |   34: Species S             2.98649849        0.42531100        2.57173160
  |   35: Species S             5.61249709        2.67018892        2.35789213
  |   36: Species S             9.22370648        6.31945100        2.69979915
  |   37: Species S             8.00074669       15.81588471        6.79858915
  |   38: Species S             6.36672185        7.88032531        2.30144505
  |   39: Species S            11.11468610        6.63741049        5.62845063
  |   40: Species S             4.67992349        1.26580889        5.51805962
  |   41: Species S             0.38221534        2.70662232        2.32489550
  |   42: Species S             1.30036147        4.68611061        2.43609225
  |   43: Species S             7.35446394        2.25127789        1.35083260
  |   44: Species S             7.86478736        3.10717337        4.87771978
  |   45: Species S            11.42303183        4.76339596        4.52803421
  |   46: Species S             6.18311058        3.95086825        4.23127685
  |   47: Species S             3.17706473        4.61786872        3.44715737
  |   48: Species S             3.05178435        5.90652197        5.27912912
  |   49: Species S             0.39837143        2.26010350        4.33426192
  |   50: Species S             2.30798633        4.77214461        6.78971311
  |   51: Species S            10.12084072        1.23394869        5.22564280
  |   52: Species S            14.34817579        1.06444022        1.16571886
  |   53: Species S            16.26735088        3.24303332        3.06324046
  |   54: Species S            19.53306036        7.16196591        4.54826726
  |   55: Species S            17.91363946        0.55142746        7.13566152
  |   56: Species S            16.50261372        7.72510105        2.98211100
  |   57: Species S            19.75446382        6.57885213        0.18464297
  |   58: Species S            13.78570602        1.30486129        4.53140916
  |   59: Species S            10.50005916        1.72953772        0.37818882
  |   60: Species S            10.32596275        3.73241775        0.11418993
  |   61: Species S            17.59103348        3.42620865        4.64078930
  |   62: Species S            16.62659340        4.11253345        6.60623660
  |   63: Species S             0.16069278        4.83014285        6.84542952
  |   64: Species S            15.19361873        5.38206199        6.19810786
  |   65: Species S            12.39586000        4.46450022        7.74429950
  |   66: Species S            12.83222778        5.90068337        1.63353495
  |   67: Species S            10.60701345        1.71392053        2.48676242
  |   68: Species S            13.23380084        5.03333455        3.40657924
  |   69: Species S             1.10441438        9.43660420        6.74940132
  |   70: Species S             2.84561020        7.86691178        1.93253118
  |   71: Species S             4.79254228       10.75838081        2.10686518
  |   72: Species S             9.13249492       14.93350943        3.55626216
  |   73: Species S             7.71338385        7.11594417        5.83088967
  |   74: Species S             6.23892431       16.13762268        2.84665760
  |   75: Species S            11.46887024       15.50987222        6.11036803
  |   76: Species S             4.34244723        9.09996718        4.90959166
  |   77: Species S             1.31031858       11.33543614        2.07462417
  |   78: Species S             1.67700858       13.43741732        2.48134564
  |   79: Species S             6.80205737       11.42313453        2.36868711
  |   80: Species S             7.15815074       11.57077586        4.53942448
  |   81: Species S            11.35095652       13.38484745        5.69990756
  |   82: Species S             5.75082430       12.75076623        5.53796187
  |   83: Species S             3.51114176       13.64472876        3.63699060
  |   84: Species S             3.09397825       14.88882429        5.43178065
  |   85: Species S             0.91582419       10.71183592        4.01654017
  |   86: Species S             2.61400511       13.74758802        7.03411837
  |   87: Species S             9.92471713        9.39569754        4.59205701
  |   88: Species S            13.38168443        9.03075244        2.30914275
  |   89: Species S            15.91852847       11.05065847        2.62656882
  |   90: Species S            19.46042529       15.38556530        4.67320357
  |   91: Species S            17.85335902        8.83811419        7.32015259
  |   92: Species S            16.67408945       16.58240441        3.18746852
  |   93: Species S            19.65280626       14.82644698        0.30179601
  |   94: Species S            14.63370704        9.37131283        5.43171505
  |   95: Species S            10.67082825       12.54712333        0.85139117
  |   96: Species S            11.82444357       14.30082327        1.50156034
  |   97: Species S            17.94793942       11.28950984        2.84892559
  |   98: Species S            18.20234514       11.94321194        5.09528070
  |   99: Species S             0.49701350       13.28291957        7.02481081
  |  100: Species S            16.57928153       12.96317327        5.83648963
  |  101: Species S            13.80168651       13.64439599        1.77795471
  |  102: Species S            14.15178615       14.33065034        3.82569653
  |  103: Species S            10.40896497       11.28437527        2.41113127
  |  104: Species S            13.37354793       12.91212439        5.05544894

  Lattice parameters for 3D lattice (in Angstroms) :    20.196464   16.766011    7.751158
  Angle(s) between unit vectors (in degrees)      :    90.000000   90.000000   90.000000

  |

  | The smallest distance between any two atoms is         1.95746984 AA.
  |
  | The first atom of this pair is atom number                     62 .
  | The second atom of this pair is atom number                    64 .
  | Wigner-Seitz cell of the first atom image           0     0     0 .
  | (The Wigner-Seitz cell of the second atom is 0 0 0  by definition.)

  Symmetry information by spglib:
  | Precision set to  0.1E-04
  | Number of Operations  : 1
  | Space group           : 1
  | International         : P1 9E
  | Schoenflies           : C1^1

  Quantities derived from the lattice vectors:
  | Reciprocal lattice vector 1:  0.311103  0.000000  0.000000
  | Reciprocal lattice vector 2:  0.000000  0.374757  0.000000
  | Reciprocal lattice vector 3:  0.000000  0.000000  0.810613
  | Unit cell volume                               :   0.262465E+04  A^3

  Range separation radius for Ewald summation (hartree_convergence_parameter):      4.23018697 bohr.

  Fractional coordinates:
                         L1                L2                L3
       atom_frac         0.13802171        0.14799930        0.61975247  Li
       atom_frac         0.08927937        0.50180298        0.56252301  Li
       atom_frac         0.45779067        0.22617647        0.37686625  Li
       atom_frac         0.34926131        0.08585045        0.84278661  Li
       atom_frac         0.41104481        0.05703989        0.40843090  Li
       atom_frac         0.34150440        0.36554101        0.46037889  Li
       atom_frac         0.63982576        0.14761212        0.34466320  Li
       atom_frac         0.61006612        0.52068013        0.58240521  Li
       atom_frac         0.98147815        0.28314093        0.56595576  Li
       atom_frac         0.71126747        0.17886855        0.83837658  Li
       atom_frac         0.90994221        0.06382385        0.60990065  Li
       atom_frac         0.81127334        0.44498608        0.71070695  Li
       atom_frac         0.17599905        0.67953599        0.61183631  Li
       atom_frac         0.06926962        0.99611819        0.57143348  Li
       atom_frac         0.46545500        0.75947207        0.53766835  Li
       atom_frac         0.33560088        0.53829342        0.62895340  Li
       atom_frac         0.42276558        0.55999535        0.29496649  Li
       atom_frac         0.33356726        0.88561893        0.61051321  Li
       atom_frac         0.63540143        0.67772311        0.34704229  Li
       atom_frac         0.57883179        0.99403983        0.45882377  Li
       atom_frac         0.00842320        0.78444523        0.58709174  Li
       atom_frac         0.82584393        0.63544846        0.83484477  Li
       atom_frac         0.93293649        0.54003066        0.43031546  Li
       atom_frac         0.84043276        0.91860884        0.69372970  Li
       atom_frac         0.46359363        0.43888894        0.59476525  P
       atom_frac         0.23825017        0.03948499        0.44841516  P
       atom_frac         0.97267997        0.48680550        0.84128058  P
       atom_frac         0.75594795        0.07037144        0.38691512  P
       atom_frac         0.47016481        0.95670110        0.69894195  P
       atom_frac         0.22509819        0.52003968        0.36332425  P
       atom_frac         0.97314125        0.97772259        0.85802805  P
       atom_frac         0.75020146        0.54546100        0.43662584  P
       atom_frac         0.06099357        0.04490192        0.88985890  S
       atom_frac         0.14787234        0.02536745        0.33178678  S
       atom_frac         0.27789503        0.15926203        0.30419871  S
       atom_frac         0.45669907        0.37692037        0.34830916  S
       atom_frac         0.39614591        0.94333023        0.87710631  S
       atom_frac         0.31523943        0.47001791        0.29691631  S
       atom_frac         0.55032831        0.39588490        0.72614324  S
       atom_frac         0.23171994        0.07549851        0.71190137  S
       atom_frac         0.01892486        0.16143508        0.29994172  S
       atom_frac         0.06438560        0.27950063        0.31428754  S
       atom_frac         0.36414611        0.13427630        0.17427495  S
       atom_frac         0.38941407        0.18532574        0.62928921  S
       atom_frac         0.56559563        0.28411028        0.58417523  S
       atom_frac         0.30614817        0.23564748        0.54588968  S
       atom_frac         0.15730797        0.27543038        0.44472808  S
       atom_frac         0.15110488        0.35229144        0.68107623  S
       atom_frac         0.01972481        0.13480270        0.55917609  S
       atom_frac         0.11427675        0.28463209        0.87596118  S
       atom_frac         0.50111943        0.07359823        0.67417580  S
       atom_frac         0.71043009        0.06348798        0.15039288  S
       atom_frac         0.80545539        0.19342904        0.39519781  S
       atom_frac         0.96715248        0.42717174        0.58678555  S
       atom_frac         0.88696909        0.03288960        0.92059302  S
       atom_frac         0.81710410        0.46075964        0.38473105  S
       atom_frac         0.97811496        0.39239222        0.02382134  S
       atom_frac         0.68258017        0.07782777        0.58461064  S
       atom_frac         0.51989591        0.10315738        0.04879127  S
       atom_frac         0.51127577        0.22261812        0.01473198  S
       atom_frac         0.87099570        0.20435444        0.59872210  S
       atom_frac         0.82324278        0.24528992        0.85229033  S
       atom_frac         0.00795648        0.28809136        0.88314933  S
       atom_frac         0.75229102        0.32101029        0.79963642  S
       atom_frac         0.61376387        0.26628280        0.99911523  S
       atom_frac         0.63537002        0.35194319        0.21074723  S
       atom_frac         0.52519161        0.10222590        0.32082465  S
       atom_frac         0.65525335        0.30021062        0.43949297  S
       atom_frac         0.05468355        0.56284136        0.87076044  S
       atom_frac         0.14089645        0.46921787        0.24932162  S
       atom_frac         0.23729610        0.64167804        0.27181298  S
       atom_frac         0.45218286        0.89070141        0.45880401  S
       atom_frac         0.38191754        0.42442679        0.75226051  S
       atom_frac         0.30891171        0.96252012        0.36725581  S
       atom_frac         0.56786525        0.92507827        0.78831685  S
       atom_frac         0.21501027        0.54276282        0.63340110  S
       atom_frac         0.06487861        0.67609620        0.26765347  S
       atom_frac         0.08303476        0.80146778        0.32012582  S
       atom_frac         0.33679447        0.68132693        0.30559140  S
       atom_frac         0.35442594        0.69013292        0.58564472  S
       atom_frac         0.56202692        0.79833227        0.73536211  S
       atom_frac         0.28474411        0.76051283        0.71446902  S
       atom_frac         0.17384933        0.81383276        0.46921903  S
       atom_frac         0.15319405        0.88803619        0.70077026  S
       atom_frac         0.04534577        0.63890189        0.51818585  S
       atom_frac         0.12942885        0.81996775        0.90749264  S
       atom_frac         0.49140865        0.56040150        0.59243500  S
       atom_frac         0.66257560        0.53863454        0.29790941  S
       atom_frac         0.78818393        0.65911078        0.33886150  S
       atom_frac         0.96355605        0.91766405        0.60290396  S
       atom_frac         0.88398439        0.52714473        0.94439477  S
       atom_frac         0.82559448        0.98904890        0.41122484  S
       atom_frac         0.97308153        0.88431573        0.03893561  S
       atom_frac         0.72456777        0.55894709        0.70076180  S
       atom_frac         0.52835131        0.74836665        0.10984052  S
       atom_frac         0.58547097        0.85296518        0.19372079  S
       atom_frac         0.88866740        0.67335695        0.36754841  S
       atom_frac         0.90126395        0.71234667        0.65735739  S
       atom_frac         0.02460894        0.79225284        0.90629184  S
       atom_frac         0.82090020        0.77318174        0.75298297  S
       atom_frac         0.68337142        0.81381291        0.22937925  S
       atom_frac         0.70070612        0.85474420        0.49356455  S
       atom_frac         0.51538551        0.67305070        0.31106725  S
       atom_frac         0.66217273        0.77013695        0.65221858  S

  Number of empty states per atom not set in control.in - providing a guess from actual geometry.
  | Total number of empty states used during s.c.f. cycle:      276
  If you use a very high smearing, use empty_states (per atom!) in control.in to increase this value.

  Structure-dependent array size parameters: 
  | Maximum number of distinct radial functions  :       43
  | Maximum number of basis functions            :     3840
  | Number of Kohn-Sham states (occupied + empty):      948
------------------------------------------------------------

------------------------------------------------------------
          Preparing all fixed parts of the calculation.
------------------------------------------------------------
  Determining machine precision:
    2.225073858507201E-308
  Setting up grids for atomic and cluster calculations.

  Creating wave function, potential, and density for free atoms.

  Species: Li

  List of occupied orbitals and eigenvalues:
    n    l              occ      energy [Ha]    energy [eV]
    1    0           2.0000        -1.901473       -51.7417
    2    0           1.0000        -0.103132        -2.8064


  Species: P

  List of occupied orbitals and eigenvalues:
    n    l              occ      energy [Ha]    energy [eV]
    1    0           2.0000       -76.356288     -2077.7603
    2    0           2.0000        -6.358286      -173.0178
    3    0           2.0000        -0.509419       -13.8620
    2    1           6.0000        -4.573976      -124.4642
    3    1           3.0000        -0.201560        -5.4847


  Species: S

  List of occupied orbitals and eigenvalues:
    n    l              occ      energy [Ha]    energy [eV]
    1    0           2.0000       -88.108280     -2397.5483
    2    0           2.0000        -7.732485      -210.4116
    3    0           2.0000        -0.629532       -17.1304
    2    1           6.0000        -5.750324      -156.4743
    3    1           4.0000        -0.257562        -7.0086


  Species: Cl

  List of occupied orbitals and eigenvalues:
    n    l              occ      energy [Ha]    energy [eV]
    1    0           2.0000      -100.710795     -2740.4802
    2    0           2.0000        -9.222997      -250.9705
    3    0           2.0000        -0.754245       -20.5241
    2    1           6.0000        -7.039872      -191.5647
    3    1           5.0000        -0.316221        -8.6048

  Creating fixed part of basis set: Ionic, confined, hydrogenic.
 
  Li                   hydrogenic:
 
  List of hydrogenic basis orbitals: 
    n    l      effective z      eigenvalue [eV]  inner max. [A]     outer max. [A]     outer radius [A]   
    2    1         1.600000        -8.7048           1.319365           1.319365           6.386418
    2    0         2.000000       -13.6052           0.203259           1.385485           6.232164
    3    2         2.600000       -10.2084           1.835332           1.835332           6.386418
    3    1         4.600000       -31.9883           0.343834           1.385485           5.381805
    2    1         1.800000       -11.0199           1.181903           1.181903           6.386418
    3    0         6.200000       -58.1113           0.062858           1.111823           4.371906
    4    2         4.700000       -18.7772           0.761113           2.401695           6.386418
    4    3         4.100000       -14.2833           2.073992           2.073992           6.386418
 
 
  P                    ion:

  List of free ionic orbitals and eigenvalues:
    n    l      energy [Ha]    energy [eV]
    1    0       -77.297133     -2103.3620
    2    0        -7.273914      -197.9333
    3    0        -1.267536       -34.4914
    2    1        -5.491316      -149.4263
    3    1        -0.913470       -24.8568


  List of ionic basis orbitals and eigenvalues:
    n    l      energy [Ha]    energy [eV]    outer radius [A]
    3    2        -0.458060       -12.4644       5.404780
    3    1        -0.913461       -24.8565       4.724723
    3    0        -1.267529       -34.4912       4.232463

 
  P                    hydrogenic:
 
  List of hydrogenic basis orbitals: 
    n    l      effective z      eigenvalue [eV]  inner max. [A]     outer max. [A]     outer radius [A]   
    4    3         6.200000       -32.6870           1.357793           1.357793           5.339109
    5    4         8.600000       -40.2502           1.534356           1.534356           5.404780
    4    2         6.200000       -32.6848           0.577014           1.820771           5.404780
 
 
  S                    ion:

  List of free ionic orbitals and eigenvalues:
    n    l      energy [Ha]    energy [eV]
    1    0       -89.127201     -2425.2745
    2    0        -8.724378      -237.4024
    3    0        -1.464668       -39.8556
    2    1        -6.744348      -183.5230
    3    1        -1.048520       -28.5317


  List of ionic basis orbitals and eigenvalues:
    n    l      energy [Ha]    energy [eV]    outer radius [A]
    3    2        -0.496514       -13.5108       5.386362
    3    0        -1.464662       -39.8555       3.967934

 
  S                    hydrogenic:
 
  List of hydrogenic basis orbitals: 
    n    l      effective z      eigenvalue [eV]  inner max. [A]     outer max. [A]     outer radius [A]   
    2    1         1.800000       -11.0118           1.168531           1.168531           5.452614
    4    3         7.000000       -41.6672           1.212182           1.212182           5.066981
    4    2         6.200000       -32.6848           0.582121           1.814567           5.386362
    5    4        10.800000       -63.4785           1.227092           1.227092           4.766538
 
 
  Cl                   ion:

  List of free ionic orbitals and eigenvalues:
    n    l      energy [Ha]    energy [eV]
    1    0      -101.807232     -2770.3157
    2    0       -10.290876      -280.0290
    3    0        -1.664625       -45.2967
    2    1        -8.110237      -220.6908
    3    1        -1.183915       -32.2160


  List of ionic basis orbitals and eigenvalues:
    n    l      energy [Ha]    energy [eV]    outer radius [A]
    3    2        -0.529392       -14.4055       5.389057
    3    0        -1.664620       -45.2966       3.780461

 
  Cl                   hydrogenic:
 
  List of hydrogenic basis orbitals: 
    n    l      effective z      eigenvalue [eV]  inner max. [A]     outer max. [A]     outer radius [A]   
    2    1         1.900000       -12.2741           1.113321           1.113321           5.389057
    4    3         7.400000       -46.5653           1.140877           1.140877           4.886961
    5    4        10.400000       -58.8635           1.273568           1.273568           4.886961
    3    2         3.300000       -16.4532           1.439178           1.439178           5.455343
 

  Adding cutoff potential to free-atom effective potential.
  Creating atomic-like basis functions for current effective potential.

  Species Li                  :

  List of atomic basis orbitals and eigenvalues:
    n    l      energy [Ha]    energy [eV]    outer radius [A]
    1    0        -1.901473       -51.7417       4.318785
    2    0        -0.103132        -2.8064       6.464971


  Species P                   :

  List of atomic basis orbitals and eigenvalues:
    n    l      energy [Ha]    energy [eV]    outer radius [A]
    1    0       -76.356288     -2077.7603       0.736837
    2    0        -6.358286      -173.0178       2.532824
    3    0        -0.509419       -13.8620       5.274236
    2    1        -4.573976      -124.4642       2.862183
    3    1        -0.201560        -5.4847       5.404780


  Species S                   :

  List of atomic basis orbitals and eigenvalues:
    n    l      energy [Ha]    energy [eV]    outer radius [A]
    1    0       -88.108280     -2397.5483       0.682391
    2    0        -7.732485      -210.4116       2.317169
    3    0        -0.629532       -17.1304       5.256262
    2    1        -5.750324      -156.4743       2.555240
    3    1        -0.257562        -7.0086       5.386362


  Species Cl                  :

  List of atomic basis orbitals and eigenvalues:
    n    l      energy [Ha]    energy [eV]    outer radius [A]
    1    0      -100.710795     -2740.4802       0.642251
    2    0        -9.222997      -250.9705       2.128190
    3    0        -0.754245       -20.5241       5.194994
    2    1        -7.039872      -191.5647       2.346844
    3    1        -0.316221        -8.6048       5.323577

  Assembling full basis from fixed parts.
  | Species Li :   atomic orbital   1 s accepted.
  | Species Li :    hydro orbital   3 s accepted.
  | Species Li :    hydro orbital   2 s accepted.
  | Species Li :   atomic orbital   2 s accepted.
  | Species Li :    hydro orbital   3 p accepted.
  | Species Li :    hydro orbital   2 p accepted.
  | Species Li :    hydro orbital   2 p accepted.
  | Species Li :    hydro orbital   3 d accepted.
  | Species Li :    hydro orbital   4 d accepted.
  | Species Li :    hydro orbital   4 f accepted.
  | Species P :   atomic orbital   1 s accepted.
  | Species P :   atomic orbital   2 s accepted.
  | Species P :    ionic orbital   3 s accepted.
  | Species P :   atomic orbital   3 s accepted.
  | Species P :   atomic orbital   2 p accepted.
  | Species P :    ionic orbital   3 p accepted.
  | Species P :   atomic orbital   3 p accepted.
  | Species P :    ionic orbital   3 d accepted.
  | Species P :    hydro orbital   4 d accepted.
  | Species P :    hydro orbital   4 f accepted.
  | Species P :    hydro orbital   5 g accepted.
  | Species S :   atomic orbital   1 s accepted.
  | Species S :   atomic orbital   2 s accepted.
  | Species S :    ionic orbital   3 s accepted.
  | Species S :   atomic orbital   3 s accepted.
  | Species S :   atomic orbital   2 p accepted.
  | Species S :   atomic orbital   3 p accepted.
  | Species S :    hydro orbital   2 p accepted.
  | Species S :    ionic orbital   3 d accepted.
  | Species S :    hydro orbital   4 d accepted.
  | Species S :    hydro orbital   4 f accepted.
  | Species S :    hydro orbital   5 g accepted.
  | Species Cl :   atomic orbital   1 s accepted.
  | Species Cl :   atomic orbital   2 s accepted.
  | Species Cl :    ionic orbital   3 s accepted.
  | Species Cl :   atomic orbital   3 s accepted.
  | Species Cl :   atomic orbital   2 p accepted.
  | Species Cl :   atomic orbital   3 p accepted.
  | Species Cl :    hydro orbital   2 p accepted.
  | Species Cl :    ionic orbital   3 d accepted.
  | Species Cl :    hydro orbital   3 d accepted.
  | Species Cl :    hydro orbital   4 f accepted.
  | Species Cl :    hydro orbital   5 g accepted.
 
  Basis size parameters after reduction:
  | Total number of radial functions:       43
  | Total number of basis functions :     3840
 
  Per-task memory consumption for arrays in subroutine allocate_ext:
  |          11.342760MB.
  Testing on-site integration grid accuracy.
  |  Species  Function  <phi|h_atom|phi> (log., in eV)  <phi|h_atom|phi> (rad., in eV)
           1        1                -51.7417001117                -51.7417000312
           1        2                 33.5927188637                 33.5926505054
           1        3                 69.1469416012                 69.1473382425
           1        4                 48.8336153902                 48.8810182289 ***
           1        5                 17.1749490570                 17.1749098864
           1        6                 32.1201183828                 32.1217831653
           1        7                  6.0166019876                  6.0249480535
           1        8                  4.9175332206                  4.9194842525
           1        9                 28.8010599263                 28.8011051086
           1       10                  9.9331480983                  9.9353515081
           2       11              -2077.7602992527              -2077.7602630746
           2       12               -173.0177635265               -173.0177629291
           2       13                -13.5620523038                -13.5620521963
           2       14                  6.3015351439                  6.3015396353
           2       15               -124.4642131574               -124.4642129967
           2       16                 -4.8468074573                 -4.8468065719
           2       17                  5.8113348591                  5.8108493787
           2       18                  5.1218113540                  5.1217878152
           2       19                 22.1386653152                 22.1386624883
           2       20                 19.3047268689                 19.3047231214
           2       21                 30.3235883931                 30.3235836780
           3       22              -2397.5482725833              -2397.5482291499
           3       23               -210.4116306505               -210.4116300246
           3       24                -16.8591546483                -16.8591544436
           3       25                  7.5848976656                  7.5849001027
           3       26               -156.4742745766               -156.4742744285
           3       27                 -7.0089268331                 -7.0089287934
           3       28                  6.8790437028                  6.8789536772
           3       29                  6.0023049431                  6.0023019693
           3       30                 19.5634804122                 19.5634829634
           3       31                 24.6809503130                 24.6809503093
           3       32                 47.5107032033                 47.5107040524
           4       33              -2740.4801671239              -2740.4801157382
           4       34               -250.9705040601               -250.9705032686
           4       35                -20.2716828479                -20.2716826054
           4       36                  9.0161300765                  9.0161279813
           4       37               -191.5646602865               -191.5646600866
           4       38                 -8.6049187754                 -8.6049181478
           4       39                  7.6458046208                  7.6458222053
           4       40                  6.9765726558                  6.9765744583
           4       41                 16.6546700656                 16.6546956458
           4       42                 28.0343243807                 28.0343233726
           4       43                 45.0370063060                 45.0370052039
 * Note: Onsite integrals marked "***" above are less accurate than
 * onsite_accuracy_threshold =    0.03000 eV. Usually, this is harmless.
 * When in doubt, tighten the "radial" and/or "radial_multiplier" flags to check.

  Preparing densities etc. for the partition functions (integrals / Hartree potential).

  Preparations completed.
  max(cpu_time)          :      0.465 s.
  Wall clock time (cpu1) :      0.471 s.
------------------------------------------------------------

------------------------------------------------------------
          Begin self-consistency loop: Initialization.

          Date     :  20220704, Time     :  055513.692
------------------------------------------------------------

  Initializing index lists of integration centers etc. from given atomic structure:
  Mapping all atomic coordinates to central unit cell.

  Initializing the k-points
          Using symmetry for reducing the k-points
  | k-points reduced from:        2 to        2
  | Number of k-points                             :         2
  The eigenvectors in the calculations are REAL.
  | Number of basis functions in the Hamiltonian integrals :     19078
  | Number of basis functions in a single unit cell        :      3840
  | Number of centers in hartree potential         :      2768
  | Number of centers in hartree multipole         :      1803
  | Number of centers in electron density summation:      1482
  | Number of centers in basis integrals           :      1557
  | Number of centers in integrals                 :       636
  | Number of centers in hamiltonian               :      1805
  | Consuming          1 KiB for k_phase.
  | Number of super-cells (origin) [n_cells]                     :         175
  | Number of super-cells (after PM_index) [n_cells]             :          46
  | Number of super-cells in hamiltonian [n_cells_in_hamiltonian]:          46
  | Size of matrix packed + index [n_hamiltonian_matrix_size] :    14352581
  Using simple linear distribution as default method for k-point parallelism.
  * Using 20 tasks for Scalapack Eigenvalue solver.
  Detailed listing of tasks and assigned k-points:
   Task     0 k-point     1 on node042
   Task     1 k-point     1 on node042
   Task     2 k-point     1 on node042
   Task     3 k-point     1 on node042
   Task     4 k-point     1 on node042
   Task     5 k-point     1 on node042
   Task     6 k-point     1 on node042
   Task     7 k-point     1 on node042
   Task     8 k-point     1 on node042
   Task     9 k-point     1 on node042
   Task    10 k-point     2 on node042
   Task    11 k-point     2 on node042
   Task    12 k-point     2 on node042
   Task    13 k-point     2 on node042
   Task    14 k-point     2 on node042
   Task    15 k-point     2 on node042
   Task    16 k-point     2 on node042
   Task    17 k-point     2 on node042
   Task    18 k-point     2 on node042
   Task    19 k-point     2 on node042
  K-point:     1 Tasks:    10 split into      5 X      2 BLACS grid
  Calculating block size based on n_basis =         3840 max_nprow =            5 max_npcol =            2
  ScaLAPACK block size set to:           16
  Allocating       11.796 MB for ovlp
  Allocating       11.796 MB for ham
  Allocating       11.796 MB for eigenvec
  Required Scalapack workspace - INTEGER:            1 REAL:             1
  Partitioning the integration grid into batches with parallel hashing+maxmin method.
  | Number of batches:    27905
  | Maximal batch size:     136
  | Minimal batch size:      52
  | Average batch size:      83.572
  | Standard deviation of batch sizes:      22.932

  Integration load balanced across    20 MPI tasks.
  Work distribution over tasks is as follows:
  Task     0 has     116622 integration points.
  Task     1 has     116559 integration points.
  Task     2 has     116618 integration points.
  Task     3 has     116625 integration points.
  Task     4 has     116578 integration points.
  Task     5 has     116562 integration points.
  Task     6 has     116547 integration points.
  Task     7 has     116639 integration points.
  Task     8 has     116577 integration points.
  Task     9 has     116627 integration points.
  Task    10 has     116617 integration points.
  Task    11 has     116653 integration points.
  Task    12 has     116611 integration points.
  Task    13 has     116552 integration points.
  Task    14 has     116634 integration points.
  Task    15 has     116638 integration points.
  Task    16 has     116625 integration points.
  Task    17 has     116612 integration points.
  Task    18 has     116633 integration points.
  Task    19 has     116551 integration points.
  Initializing partition tables, free-atom densities, potentials, etc. across the integration grid (initialize_grid_storage).
  | initialize_grid_storage: Actual outermost partition radius vs. multipole_radius_free
  | (-- VB: in principle, multipole_radius_free should be larger, hence this output)
  | Species        1: Confinement radius =              7.000000000000000 AA, multipole_radius_free =              7.042572113910259 AA.
  | Species        1: outer_partition_radius set to              7.042572113910259 AA .
  | Species        2: Confinement radius =              6.000000000000000 AA, multipole_radius_free =              6.033387558927091 AA.
  | Species        2: outer_partition_radius set to              6.033387558927091 AA .
  | Species        3: Confinement radius =              6.000000000000000 AA, multipole_radius_free =              6.012827091137924 AA.
  | Species        3: outer_partition_radius set to              6.012827091137924 AA .
  | Species        4: Confinement radius =              6.000000000000000 AA, multipole_radius_free =              6.015836048499353 AA.
  | Species        4: outer_partition_radius set to              6.015836048499353 AA .
  | Original list of interatomic distances with        1557 x       1557 entries is created.
  | Net number of integration points:  2332080
  | of which are non-zero points    :  1910462
  | Numerical average free-atom electrostatic potential    :     -8.99753149 eV
  Renormalizing the initial density to the exact electron count on the 3D integration grid.
  | Initial density: Formal number of electrons (from input files) :    1344.0000000000
  | Integrated number of electrons on 3D grid     :    1344.0000937506
[...]
  | Total energy evaluation                    :        0.003 s           0.005 s

  Partial memory accounting:
  | Current value for overall tracked memory usage on task 0  :         217.569 MB
  | Peak value for overall tracked memory usage on task 0     :         447.210 MB after allocating temp_ham_ovlp
  | Largest tracked array allocation on task 0 so far         :         114.821 MB  when allocating overlap_matrix
  Note:  These values currently only include a subset of arrays which are explicitly tracked.
  The "true" memory usage will be greater.
------------------------------------------------------------
  |------------------------------------------
  | Final ELSI Output
  |------------------------------------------
  | Number of basis functions :         3840
  | Number of electrons       :       1344.0
  | Number of spins           :            1
  | Number of k-points        :            2
  | Number of states          :          948
  | Solver                    :         ELPA
  | Parallel mode             :   MULTI_PROC
  | Matrix format             :  BLACS_DENSE
  | Matrix sparsity           :        0.195
  |------------------------------------------
  | ELSI Project (c)  elsi-interchange.org
  |------------------------------------------
  Removing unitary transformations (pure translations, rotations) from forces on atoms.
  Atomic forces before filtering:
  | Net force on center of mass :   0.290067E-03 -0.135266E-02  0.294296E-02 eV/A
  Atomic forces after filtering:
  | Net force on center of mass :   0.713624E-15  0.142725E-14 -0.147185E-14 eV/A

  Energy and forces in a compact form:
  | Total energy uncorrected      :         -0.859139451791158E+06 eV
  | Total energy corrected        :         -0.859139451791158E+06 eV  <-- do not rely on this value for anything but (periodic) metals
  | Electronic free energy        :         -0.859139451791158E+06 eV
  Total atomic forces (unitary forces cleaned) [eV/Ang]:
  |   1         -0.170855328069948E+00         -0.467523450458268E-01         -0.133704562794491E-01
  |   2          0.581955056494999E-01          0.239138543649305E-01          0.217689605415027E-01
  |   3         -0.314127659345266E-02          0.426421168599428E-01          0.142547344262866E-01
  |   4         -0.772416169465262E-01         -0.517509704882618E-01          0.591254077499708E-02
  |   5          0.435982853094118E-01         -0.177443563253588E+00         -0.106500942550988E-01
  |   6          0.252180629984400E+00         -0.203308173354917E+00          0.304651550068653E+00
  |   7         -0.192985607967323E+00          0.464151743942769E-01         -0.289128934646600E+00
  |   8          0.100208057358255E+00         -0.423821913253461E-01         -0.217088914726181E-01
  |   9         -0.307422099695018E-01         -0.183917349370443E-01         -0.599020687164795E-02
  |  10          0.146617820073540E+00         -0.364528075757950E-01         -0.287753994206075E-01
  |  11         -0.634537215377140E-01         -0.852082021100252E-02         -0.219734128122418E+00
  |  12          0.235130880741356E-01          0.313627265886483E-01          0.112198767626077E+00
  |  13          0.967225371272585E-01         -0.391650678296665E-01         -0.481869506770945E-01
  |  14         -0.363867123870935E-01          0.788382358897096E-01          0.953050826027757E-01
  |  15          0.671221548302720E-01         -0.264320319245645E+00         -0.124172684274952E+00
  |  16         -0.216511949625923E+00          0.164396362760635E+00         -0.564383923474132E-01
  |  17         -0.994426247951287E-02          0.312489660326043E-02          0.589155903872893E-01
  |  18          0.119473610094622E+00         -0.797529877953719E-01          0.308554014114250E+00
  |  19         -0.870742053777185E-01         -0.345247300194873E-01         -0.802628353051818E-01
  |  20          0.182621469647876E+00         -0.451904203825606E-01          0.195463325995559E+00
  |  21         -0.630192685481327E-01         -0.696154149877537E-01         -0.113272878965837E-01
  |  22         -0.221642639177587E+00          0.546670254828392E-01         -0.177378773604609E+00
  |  23         -0.649926160910726E-01          0.206678802617220E-01         -0.540821349966180E-01
  |  24          0.180845112324503E+00          0.353908453335105E-01          0.664261816360976E-01
  |  25         -0.458199643911801E+00         -0.679804000079945E-01         -0.536095776254510E+00
  |  26         -0.481606703928490E+00         -0.207827302545297E-01          0.370594729718917E+00
  |  27          0.719551235020430E+00          0.778520146623918E+00         -0.657945483285705E+00
  |  28         -0.797117645186854E+00          0.719386967836766E+00         -0.124201198345968E-01
  |  29         -0.323531095791248E+00         -0.114889476481122E+00         -0.461970350867115E+00
  |  30         -0.853891845611710E+00         -0.556967908286104E+00          0.318377764609198E-01
  |  31          0.824164495470048E+00          0.602423052199449E+00         -0.683669520273471E+00
  |  32         -0.300221691376633E+00         -0.272568146243687E+00          0.347917719839252E+00
  |  33         -0.142463194403976E+01         -0.119023664047821E+01         -0.360758204148979E+00
  |  34          0.942313513654773E+00          0.404950254950231E+00          0.612699092689474E+00
  |  35          0.385493520931803E+00          0.453968158753336E+00         -0.221734792683196E+00
  |  36         -0.619296750177494E-01          0.131555907561204E+01          0.136173863468223E+01
  |  37          0.497023615222694E+00         -0.813831037726557E-02         -0.814876142291683E+00
  |  38         -0.378730083378826E+00          0.519114514944825E+00          0.605323385680428E-01
  |  39          0.166077484191577E+00         -0.130497350711306E+01         -0.857829505261700E+00
  |  40          0.267075230060491E+00         -0.723267286514329E+00         -0.125231174149443E+01
  |  41          0.604108545326114E+00          0.131500767447193E+01          0.920568406171831E-01
  |  42         -0.576760070429878E-01         -0.357319580998800E+00         -0.188246582699248E+00
  |  43         -0.755753861035671E+00          0.319483948615968E+00          0.575116109416787E+00
  |  44          0.550235825268840E+00         -0.326808494766925E+00          0.126046524927013E+00
  |  45          0.596270407301663E+00          0.817070778043917E+00          0.673902498103315E+00
  |  46         -0.735356542739238E+00         -0.116184586842676E+00         -0.838791661980999E+00
  |  47         -0.478241573084695E+00          0.202535986995282E+00          0.516191829055220E+00
  |  48         -0.246961660273513E+00         -0.694896998382413E+00         -0.811106738149306E+00
  |  49         -0.840621393471999E-03         -0.324142047157736E+00          0.270948442140291E+00
  |  50         -0.291827077256084E+00         -0.120192741382057E+00          0.989435644337165E-01
  |  51         -0.175456235448387E+00         -0.863667395175961E+00         -0.160689187474758E-01
  |  52          0.133500143678936E+00          0.586141941951869E+00          0.804538555384026E+00
  |  53         -0.469814004223707E-01         -0.910127658925185E-01          0.117072818999082E+00
  |  54          0.317152623210914E+00          0.101050860499952E+01          0.134437401201727E+01
  |  55          0.289357549137912E+00         -0.275773295151394E+00         -0.498450094691926E+00
  |  56         -0.112732316649623E+00          0.237681388950145E+00          0.410276952123440E+00
  |  57          0.303099957160284E+00         -0.141001153757035E+01         -0.520021876139047E+00
  |  58          0.636589671703969E+00         -0.791434241233632E-01         -0.371373035151836E+00
  |  59          0.873625423789610E-01          0.366406129109010E+00          0.498234290538013E+00
  |  60          0.610141957672118E+00          0.435603431032722E+00         -0.455505134846970E+00
  |  61         -0.718114288120359E+00         -0.116695553113335E+00         -0.196898640332038E+00
  |  62          0.898971664452815E+00         -0.111640078220894E+01         -0.140962453588214E+00
  |  63          0.367494079649962E+00          0.842728421100888E+00          0.740161542823821E+00
  |  64         -0.836678212641776E+00          0.775016765111234E+00         -0.236781364766519E+00
  |  65         -0.383583146924706E+00          0.365495069631290E+00          0.966851743604440E+00
  |  66         -0.284602451227124E+00         -0.431638292368892E+00         -0.119380548675508E+01
  |  67          0.266588603228403E-01         -0.228361661518510E+00         -0.197960729627133E+00
  |  68         -0.489211047588134E+00         -0.322322307749867E+00          0.420550778424438E+00
  |  69         -0.159133474025064E+01         -0.135673500733755E+01         -0.412135508604302E+00
  |  70          0.152654106995948E+01          0.106797989692233E+01          0.105753700840413E+01
  |  71          0.407881893532520E+00          0.730065771582554E+00         -0.327704022818600E+00
  |  72          0.340588421862085E+00          0.141415696507828E+01          0.149074940248593E+01
  |  73          0.709267805674962E+00         -0.245582260287450E+00         -0.664034911895999E+00
  |  74         -0.366279708369975E+00          0.597526796578709E+00          0.402355091091193E+00
  |  75         -0.568633260004652E+00         -0.104125169724622E+01         -0.638533629594678E+00
  |  76          0.936182901155677E-01         -0.571243148541520E+00         -0.892993538417384E+00
  |  77          0.390653626016176E+00          0.129750392011438E+01          0.426838164173849E+00
  |  78          0.139895426277390E+00         -0.373744824908228E+00         -0.152170362470064E+00
  |  79         -0.850033937849435E+00         -0.295394682304934E+00          0.406432138240807E+00
  |  80         -0.476834866833621E+00          0.227180089044914E+00          0.177815821196144E+00
  |  81          0.775107961766808E+00          0.482667418629898E+00          0.233612111895629E-01
  |  82          0.715734782261834E+00         -0.531329500319940E+00         -0.588396243559576E+00
  |  83         -0.640658811224210E+00         -0.824212700630235E-02          0.272815126746373E+00
  |  84         -0.125820909621174E+00         -0.457330752675892E+00         -0.890117118358656E+00
  |  85         -0.829771479341592E-01         -0.265819623346744E+00          0.169845830873558E+00
  |  86         -0.520088065262176E+00         -0.390257826021078E+00          0.945778920884618E-01
  |  87         -0.510818841891513E+00         -0.107317914718355E+01         -0.210563164815017E+00
  |  88          0.523664341001168E+00          0.377669146130669E+00          0.404145363862500E+00
  |  89          0.258059102166312E+00          0.354250323167757E+00         -0.196395701898996E+00
  |  90          0.208049053900044E+00          0.121129554120755E+01          0.117941008303261E+01
  |  91          0.480927847712151E+00         -0.447432941814133E+00         -0.367011095790194E+00
  |  92          0.693221168578910E+00         -0.445681778937631E+00          0.471380192985456E+00
  |  93          0.419661603199204E+00         -0.119609644253694E+01         -0.291017447699299E+00
  |  94          0.262295845644199E+00         -0.239241012903521E+00         -0.883762228241578E+00
  |  95          0.909732599740934E+00          0.135672473720577E+01         -0.151377410081371E-01
  |  96         -0.371657194377388E+00         -0.877018040136600E+00         -0.500087635776405E+00
  |  97         -0.755492758620422E+00          0.269733414456254E-01          0.536773407454261E+00
  |  98         -0.275612063531399E+00          0.140153578694516E+00         -0.250878672525135E+00
  |  99          0.412410810726479E+00          0.753366311818472E+00          0.670994199840874E+00
  | 100          0.498849799854689E+00         -0.276605082723613E+00         -0.267783301527284E+00
  | 101         -0.287126895907106E+00          0.413189505682503E+00          0.558182963805931E+00
  | 102         -0.388710139176645E+00         -0.469820985409493E+00         -0.795618580901051E+00
  | 103         -0.246105105723831E+00         -0.300614455339080E+00          0.716053343945597E+00
  | 104         -0.269850010840773E+00          0.948439808150147E-01          0.327827645786797E+00

  ------------------------------------ 
  Start decomposition of the XC Energy 
  ------------------------------------ 
  X and C from original XC functional choice 
  Hartree-Fock Energy :          0.000000000 Ha              0.000000000 eV
  X Energy            :      -2017.181460089 Ha         -54890.300316764 eV
  C Energy            :        -51.837825576 Ha          -1410.579003398 eV
  Total XC Energy     :      -2069.019285666 Ha         -56300.879320162 eV
  ------------------------------------ 
  LDA X and C from self-consistent density 
  X Energy LDA        :      -1868.994737535 Ha         -50857.934431537 eV
  C Energy LDA        :       -103.121789649 Ha          -2806.086668471 eV
  ------------------------------------ 
  End decomposition of the XC Energy 
  ------------------------------------ 

------------------------------------------------------------

------------------------------------------------------------------------------
  Final output of selected total energy values:

  The following output summarizes some interesting total energy values
  at the end of a run (AFTER all relaxation, molecular dynamics, etc.).

  | Total energy of the DFT / Hartree-Fock s.c.f. calculation      :        -859139.451791158 eV
  | Final zero-broadening corrected energy (caution - metals only) :        -859139.451791158 eV
  | For reference only, the value of 1 Hartree used in FHI-aims is :             27.211384500 eV

  Before relying on these values, please be sure to understand exactly which
  total energy value is referred to by a given number. Different objects may
  all carry the same name 'total energy'. Definitions:

  Total energy of the DFT / Hartree-Fock s.c.f. calculation:
  | Note that this energy does not include ANY quantities calculated after the
  | s.c.f. cycle, in particular not ANY RPA, MP2, etc. many-body perturbation terms.

  Final zero-broadening corrected energy:
  | For metallic systems only, a broadening of the occupation numbers at the Fermi
  | level can be extrapolated back to zero broadening by an electron-gas inspired
  | formula. For all systems that are not real metals, this value can be
  | meaningless and should be avoided.

------------------------------------------------------------------------------
  Methods described in the following list of references were used in this FHI-aims run.
  If you publish the results, please make sure to cite these reference if they apply.
  FHI-aims is an academic code, and for our developers (often, Ph.D. students
  and postdocs), scientific credit in the community is essential.
  Thank you for helping us!

  For any use of FHI-aims, please cite:

    Volker Blum, Ralf Gehrke, Felix Hanke, Paula Havu, Ville Havu,
    Xinguo Ren, Karsten Reuter, and Matthias Scheffler
    'Ab initio molecular simulations with numeric atom-centered orbitals'
    Computer Physics Communications 180, 2175-2196 (2009)
    http://dx.doi.org/10.1016/j.cpc.2009.06.022


  The provided symmetry information was generated with SPGlib:

    Atsushi Togo, Yusuke Seto, Dimitar Pashov
    SPGlib 1.7.3 obtained from http://spglib.sourceforge.net
    Copyright (C) 2008 Atsushi Togo


  The scalable eigensolver library ELPA was used in your run.
  ELPA is essential especially for large systems on hundreds or thousands of CPUs.
  For ELPA, please cite:

    Andreas Marek, Volker Blum, Rainer Johanni, Ville Havu, Bruno Lang,
    Thomas Auckenthaler, Alexander Heinecke, Hans-Joachim Bungartz, and Hermann Lederer,
    'The ELPA Library - Scalable Parallel Eigenvalue Solutions
    for Electronic Structure Theory and Computational Science'
    The Journal of Physics: Condensed Matter 26, 213201 (2014).
    http://dx.doi.org/10.1088/0953-8984/26/21/213201


  The ELSI infrastructure was used in your run to solve the Kohn-Sham electronic structure.
  Please check out http://elsi-interchange.org to learn more.
  If scalability is important for your project, please acknowledge ELSI by citing:

    V. W-z. Yu, F. Corsetti, A. Garcia, W. P. Huhn, M. Jacquelin, W. Jia,
    B. Lange, L. Lin, J. Lu, W. Mi, A. Seifitokaldani, A. Vazquez-Mayagoitia,
    C. Yang, H. Yang, and V. Blum
    'ELSI: A unified software interface for Kohn-Sham electronic structure solvers'
    Computer Physics Communications 222, 267-285 (2018).
    http://dx.doi.org/10.1016/j.cpc.2017.09.007


  For the real-space grid partitioning and parallelization used in this calculation, please cite:

    Ville Havu, Volker Blum, Paula Havu, and Matthias Scheffler,
    'Efficient O(N) integration for all-electron electronic structure calculation'
    'using numerically tabulated basis functions'
    Journal of Computational Physics 228, 8367-8379 (2009).
    http://dx.doi.org/10.1016/j.jcp.2009.08.008

  Of course, there are many other important community references, e.g., those cited in the
  above references. Our list is limited to references that describe implementations in the
  FHI-aims code. The reason is purely practical (length of this list) - please credit others as well.

------------------------------------------------------------
          Leaving FHI-aims.
          Date     :  20220704, Time     :  064625.524

          Computational steps:
          | Number of self-consistency cycles          :           23
          | Number of SCF (re)initializations          :            1

          Detailed time accounting                     :  max(cpu_time)    wall_clock(cpu1)
          | Total time                                 :     3072.284 s        3072.404 s
          | Preparation time                           :        0.465 s           0.471 s
          | Boundary condition initalization           :        0.840 s           0.841 s
          | Grid partitioning                          :        3.977 s           3.977 s
          | Preloading free-atom quantities on grid    :        0.035 s           0.044 s
          | Free-atom superposition energy             :        1.642 s           1.643 s
          | Total time for integrations                :      638.602 s         638.582 s
          | Total time for solution of K.-S. equations :       59.050 s          59.054 s
          | Total time for density & force components  :     1695.890 s        1695.832 s
          | Total time for mixing & preconditioning    :      245.061 s         245.160 s
          | Total time for Hartree multipole update    :        0.664 s           0.663 s
          | Total time for Hartree multipole sum       :      416.606 s         416.601 s
          | Total time for total energy evaluation     :        0.010 s           0.016 s

          Partial memory accounting:
          | Residual value for overall tracked memory usage across tasks :           0.000 MB (should be 0.000 MB)
          | Peak values for overall tracked memory usage (after allocating temp_ham_ovlp):
          |   Minimum:      447.210 MB (on task  1)
          |   Maximum:      447.210 MB (on task  1)
          |   Average:      447.210 MB
          | Largest tracked array allocation (overlap_matrix):
          |   Minimum:      114.821 MB (on task  1)
          |   Maximum:      114.821 MB (on task  1)
          |   Average:      114.821 MB
          Note:  These values currently only include a subset of arrays which are explicitly tracked.
          The "true" memory usage will be greater.

          Have a nice day.
------------------------------------------------------------
