  MPI-parallelism will be employed.
------------------------------------------------------------
          Invoking FHI-aims ...
          Version 171221_1
          Compiled on 2020/09/23 at 19:46:43 on host login.service.

          When using FHI-aims, please cite the following reference:

          Volker Blum, Ralf Gehrke, Felix Hanke, Paula Havu,
          Ville Havu, Xinguo Ren, Karsten Reuter, and Matthias Scheffler,
          'Ab Initio Molecular Simulations with Numeric Atom-Centered Orbitals',
          Computer Physics Communications 180, 2175-2196 (2009)

          For any questions about FHI-aims, please visit the aimsclub website
          with its forums and wiki. Contributions to both the forums and the
          wiki are warmly encouraged - they are for you, and everyone is welcome there.

------------------------------------------------------------



  Date     :  20220324, Time     :  054111.429
  Time zero on CPU 1             :   0.819560000000000E-01  s.
  Internal wall clock time zero  :           417332471.429  s.

  FHI-aims created a unique identifier for this run for later identification
  aims_uuid : 67587B5E-B9FE-4708-A926-17C0BD257B9D

  Using       20 parallel tasks.
  Task        0 on host node010 reporting.
  Task        1 on host node010 reporting.
  Task        2 on host node010 reporting.
  Task        3 on host node010 reporting.
  Task        4 on host node010 reporting.
  Task        5 on host node010 reporting.
  Task        6 on host node010 reporting.
  Task        7 on host node010 reporting.
  Task        8 on host node010 reporting.
  Task        9 on host node010 reporting.
  Task       10 on host node010 reporting.
  Task       11 on host node010 reporting.
  Task       12 on host node010 reporting.
  Task       13 on host node010 reporting.
  Task       14 on host node010 reporting.
  Task       15 on host node010 reporting.
  Task       16 on host node010 reporting.
  Task       17 on host node010 reporting.
  Task       18 on host node010 reporting.
  Task       19 on host node010 reporting.

  Performing system and environment tests:
  *** Environment variable OMP_NUM_THREADS is not set
  *** For performance reasons you might want to set it to 1
  | Maximum stacksize for task 0: unlimited
  | Maximum stacksize for task 1: unlimited
  | Maximum stacksize for task 2: unlimited
  | Maximum stacksize for task 3: unlimited
  | Maximum stacksize for task 4: unlimited
  | Maximum stacksize for task 5: unlimited
  | Maximum stacksize for task 6: unlimited
  | Maximum stacksize for task 7: unlimited
  | Maximum stacksize for task 8: unlimited
  | Maximum stacksize for task 9: unlimited
  | Maximum stacksize for task 10: unlimited
  | Maximum stacksize for task 11: unlimited
  | Maximum stacksize for task 12: unlimited
  | Maximum stacksize for task 13: unlimited
  | Maximum stacksize for task 14: unlimited
  | Maximum stacksize for task 15: unlimited
  | Maximum stacksize for task 16: unlimited
  | Maximum stacksize for task 17: unlimited
  | Maximum stacksize for task 18: unlimited
  | Maximum stacksize for task 19: unlimited
  | Current stacksize for task 0: unlimited
  | Current stacksize for task 1: unlimited
  | Current stacksize for task 2: unlimited
  | Current stacksize for task 3: unlimited
  | Current stacksize for task 4: unlimited
  | Current stacksize for task 5: unlimited
  | Current stacksize for task 6: unlimited
  | Current stacksize for task 7: unlimited
  | Current stacksize for task 8: unlimited
  | Current stacksize for task 9: unlimited
  | Current stacksize for task 10: unlimited
  | Current stacksize for task 11: unlimited
  | Current stacksize for task 12: unlimited
  | Current stacksize for task 13: unlimited
  | Current stacksize for task 14: unlimited
  | Current stacksize for task 15: unlimited
  | Current stacksize for task 16: unlimited
  | Current stacksize for task 17: unlimited
  | Current stacksize for task 18: unlimited
  | Current stacksize for task 19: unlimited
  | Checking for scalapack...
  | Testing pdtran()...
  | All pdtran() tests passed.

  Obtaining array dimensions for all initial allocations:
  
  -----------------------------------------------------------------------
  Parsing control.in (first pass over file, find array dimensions only).
  The contents of control.in will be repeated verbatim below
  unless switched off by setting 'verbatim_writeout .false.' .
  in the first line of control.in .
  -----------------------------------------------------------------------
  
  #===============================================================================
  # FHI-aims file: ./control.in
  # Created using the Atomic Simulation Environment (ASE)
  # Wed Mar 24 12:41:28 2021
  #===============================================================================
  xc                                 pbe
  sc_accuracy_etot                   1e-06
  sc_accuracy_eev                    0.001
  sc_accuracy_rho                    1e-06
  sc_accuracy_forces                 0.0001
  friction_temperature               300  # default 300
  
    k_grid                             5 5 5
  
  ################################################################################
  #
  #  FHI-aims code project
  # Volker Blum, Fritz Haber Institute Berlin, 2009
  #
  #  Suggested "tight" defaults for Li atom (to be pasted into control.in file)
  #
  #  2016/03/22: Increased cutoff radius to 5.0 AA (Xinguo Ren, Aug 15, 2015)
  #
  ################################################################################
    species        Li
  #     global species definitions
      nucleus             3
      mass                6.941
  #
      l_hartree           6
  #
      cut_pot             5.0  2.0  1.0
      basis_dep_cutoff    1e-4
  #
      radial_base         29 7.0
      radial_multiplier   2
      angular_grids       specified
        division   0.4484  110
        division   0.5659  194
        division   0.6315  302
        division   0.6662  434
  #      division   0.8186  590
  #      division   0.9037  770
  #      division   6.2760  974
  #      outer_grid   974
        outer_grid  434
  ################################################################################
  #
  #  Definition of "minimal" basis
  #
  ################################################################################
  #     valence basis states
      valence      2  s   1.
  #     ion occupancy
      ion_occ      1  s   2.
  ################################################################################
  #
  #  Suggested additional basis functions. For production calculations,
  #  uncomment them one after another (the most important basis functions are
  #  listed first).
  #
  #  Constructed for dimers: 1.80 A, 2.25 A, 2.75 A, 3.50 A, 4.50 A
  #
  ################################################################################
  #  "First tier" - improvements: -189.23 meV to -6.35 meV
       hydro 2 p 1.6
       hydro 2 s 2
       hydro 3 d 2.6
  #  "Second tier" - improvements: -4.69 meV to -0.41 meV
       hydro 3 p 4.6
       hydro 2 p 1.8
       hydro 3 s 6.2
       hydro 4 d 4.7
       hydro 4 f 4.1
  #  "Third tier" - improvements: -0.20 meV to -0.15 meV
  #     hydro 4 d 0.95
  #     hydro 3 p 6.2
  #     hydro 3 s 1.7
  #  Further functions, listed for completeness
  #     VB: The following functions are only listed for completeness; test very
  #         carefully before any kind of production use. From the point of view
  #         of the basis construction, their main role is to fill up space,
  #         and they are solely determined by the location of the cutoff potential.
  #     hydro 3 p 0.1  # -0.15 meV
  #     hydro 4 d 5    # -0.12 meV
  #     hydro 4 f 0.1  # -0.14 meV
  #     hydro 5 g 0.1  # -0.06 meV
  
  
  ################################################################################
  #
  # For methods that use the localized form of the "resolution of identity" for
  # the two-electron Coulomb operator (RI_method LVL), particularly Hartree-Fock and
  # hybrid density functional calculations, the highest accuracy can be obtained by
  # uncommenting the line beginning with "for_aux"  below, thus adding an extra g radial
  # function to the construction of the product basis set for the expansion.
  # See Ref. New J. Phys. 17, 093020 (2015) for more information, particularly Figs. 1 and 6.
  #
  ################################################################################
  #
  # for_aux hydro 5 g 6.0
  ################################################################################
  #
  #  FHI-aims code project
  # Volker Blum, Fritz Haber Institute Berlin, 2010
  #
  #  Suggested "tight" defaults for P atom (to be pasted into control.in file)
  #
  #  Revised Jan 04, 2011, following tests (SiC) done by Lydia Nemec:
  #     d function of tier 2 now enabled by default.
  #
  ################################################################################
    species        P
  #     global species definitions
      nucleus             15
      mass                30.973762
  #
      l_hartree           6
  #
      cut_pot             4.0          2.0  1.0
      basis_dep_cutoff    1e-4
  #
      radial_base         43 7.0
      radial_multiplier   2
      angular_grids       specified
        division   0.2995   50
        division   0.5998  110
        division   0.9240  194
        division   1.0921  302
        division   1.2863  434
  #      division   1.3165  590
  #      division   1.4113  770
  #      division   1.5128  974
  #      division   2.4980 1202
        outer_grid  434
  ################################################################################
  #
  #  Definition of "minimal" basis
  #
  ################################################################################
  #     valence basis states
      valence      3  s   2.
      valence      3  p   3.
  #     ion occupancy
      ion_occ      3  s   1.
      ion_occ      3  p   2.
  ################################################################################
  #
  #  Suggested additional basis functions. For production calculations,
  #  uncomment them one after another (the most important basis functions are
  #  listed first).
  #
  #  Constructed for dimers: 1.625 A, 1.875 A, 2.5 A, 3.25 A, 4.0 A
  #
  ################################################################################
  #  "First tier" - improvements: -726.20 meV to -35.91 meV
       ionic 3 d auto
       ionic 3 p auto
       hydro 4 f 6.2
       hydro 5 g 8.6
       ionic 3 s auto
  #  "Second tier" - improvements: -16.02 meV to -1.71 meV
       hydro 4 d 6.2
  #     hydro 4 p 9.2
  #     hydro 5 f 9.8
  #     hydro 1 s 0.7
  #     hydro 5 g 13.2
  #  "Third tier" - improvements: -1.82 meV to -0.20 meV
  #     hydro 3 p 2.5
  #     hydro 4 d 6.4
  #     hydro 5 f 11.2
  #     hydro 2 s 1.5
  #  "Fourth tier" - improvements: -0.91 meV to -0.17 meV
  #     hydro 3 d 16.8
  #     hydro 5 g 18
  #     hydro 4 p 4.5
  #     hydro 3 s 2.1
  #  Further basis functions that fell out of the optimization - < -0.09 meV
  #     hydro 4 p 10.4
  #     hydro 4 d 17.6
  #     hydro 4 s 11.2
  ################################################################################
  #
  # For methods that use the localized form of the "resolution of identity" for
  # the two-electron Coulomb operator (RI_method LVL), particularly Hartree-Fock and
  # hybrid density functional calculations, the highest accuracy can be obtained by
  # uncommenting the line beginning with "for_aux"  below, thus adding an extra g radial
  # function to the construction of the product basis set for the expansion.
  # See Ref. New J. Phys. 17, 093020 (2015) for more information, particularly Figs. 1 and 6.
  #
  ################################################################################
  #
  # for_aux hydro 5 g 6.0
  ################################################################################
  #
  #  FHI-aims code project
  # Volker Blum, Fritz Haber Institute Berlin, 2009
  #
  #  Suggested "tight" defaults for S atom (to be pasted into control.in file)
  #
  #  Revised Jan 04, 2011, following tests (SiC) done by Lydia Nemec:
  #     d and g functions of tier 2 now enabled by default.
  #
  ################################################################################
    species        S
  #     global species definitions
      nucleus             16
      mass                32.065
  #
      l_hartree           6
  #
      cut_pot             4.0          2.0  1.0
      basis_dep_cutoff    1e-4
  #
      radial_base         44 7.0
      radial_multiplier   2
      angular_grids       specified
        division   0.4665  110
        division   0.5810  194
        division   0.7139  302
        division   0.8274  434
  #      division   0.9105  590
  #      division   1.0975  770
  #      division   1.2028  974
  #      outer_grid  974
        outer_grid  434
  ################################################################################
  #
  #  Definition of "minimal" basis
  #
  ################################################################################
  #     valence basis states
      valence      3  s   2.
      valence      3  p   4.
  #     ion occupancy
      ion_occ      3  s   1.
      ion_occ      3  p   3.
  ################################################################################
  #
  #  Suggested additional basis functions. For production calculations,
  #  uncomment them one after another (the most important basis functions are
  #  listed first).
  #
  #  Constructed for dimers: 1.6 A, 1.9 A, 2.5 A, 3.25 A, 4.0 A
  #
  ################################################################################
  #  "First tier" - improvements: -652.81 meV to -45.53 meV
       ionic 3 d auto
       hydro 2 p 1.8
       hydro 4 f 7
       ionic 3 s auto
  #  "Second tier" - improvements: -30.20 meV to -1.74 meV
       hydro 4 d 6.2
       hydro 5 g 10.8
  #     hydro 4 p 4.9
  #     hydro 5 f 10
  #     hydro 1 s 0.8
  #  "Third tier" - improvements: -1.04 meV to -0.20 meV
  #     hydro 3 d 3.9
  #     hydro 3 d 2.7
  #     hydro 5 g 12
  #     hydro 4 p 10.4
  #     hydro 5 f 12.4
  #     hydro 2 s 1.9
  #  "Fourth tier" - improvements: -0.35 meV to -0.06 meV
  #     hydro 4 d 10.4
  #     hydro 4 p 7.2
  #     hydro 4 d 10
  #     hydro 5 g 19.2
  #     hydro 4 s 12
  
  ################################################################################
  #
  # For methods that use the localized form of the "resolution of identity" for
  # the two-electron Coulomb operator (RI_method LVL), particularly Hartree-Fock and
  # hybrid density functional calculations, the highest accuracy can be obtained by
  # uncommenting the line beginning with "for_aux"  below, thus adding an extra g radial
  # function to the construction of the product basis set for the expansion.
  # See Ref. New J. Phys. 17, 093020 (2015) for more information, particularly Figs. 1 and 6.
  #
  ################################################################################
  #
  # for_aux hydro 5 g 6.0
  ################################################################################
  #
  #  FHI-aims code project
  # Volker Blum, Fritz Haber Institute Berlin, 2009
  #
  #  Suggested "tight" defaults for Cl atom (to be pasted into control.in file)
  #
  #  Revised Jan 04, 2011, following tests (SiC) done by Lydia Nemec:
  #     d function of tier 2 now enabled by default.
  #
  ################################################################################
    species        Cl
  #     global species definitions
      nucleus             17
      mass                35.453
  #
      l_hartree           6
  #
      cut_pot             4.0          2.0  1.0
      basis_dep_cutoff    1e-4
  #
      radial_base         45 7.0
      radial_multiplier   2
      angular_grids       specified
        division   0.4412  110
        division   0.5489  194
        division   0.6734  302
        division   0.7794  434
  #      division   0.9402  590
  #      division   1.0779  770
  #      division   1.1792  974
  #      outer_grid  974
        outer_grid  434
  ################################################################################
  #
  #  Definition of "minimal" basis
  #
  ################################################################################
  #     valence basis states
      valence      3  s   2.
      valence      3  p   5.
  #     ion occupancy
      ion_occ      3  s   1.
      ion_occ      3  p   4.
  ################################################################################
  #
  #  Suggested additional basis functions. For production calculations,
  #  uncomment them one after another (the most important basis functions are
  #  listed first).
  #
  #  Constructed for dimers: 1.65 A, 2.0 A, 2.5 A, 3.25 A, 4.0 A
  #
  ################################################################################
  #  "First tier" - improvements: -429.57 meV to -15.03 meV
       ionic 3 d auto
       hydro 2 p 1.9
       hydro 4 f 7.4
       ionic 3 s auto
       hydro 5 g 10.4
  #  "Second tier" - improvements: -7.84 meV to -0.48 meV
       hydro 3 d 3.3
  #     hydro 5 f 9.8
  #     hydro 1 s 0.75
  #     hydro 5 g 11.2
  #     hydro 4 p 10.4
  #  "Third tier" - improvements: -1.00 meV to -0.12 meV
  #     hydro 4 d 12.8
  #     hydro 4 f 4.6
  #     hydro 4 d 10.8
  #     hydro 2 s 1.8
  #     hydro 3 p 3
  #  Further functions that fell out - improvements: -0.10 meV and below
  #     hydro 5 f 14.4
  #     hydro 4 s 12.8
  #     hydro 3 d 11.6
  #     hydro 4 s 4.1
  ################################################################################
  #
  # For methods that use the localized form of the "resolution of identity" for
  # the two-electron Coulomb operator (RI_method LVL), particularly Hartree-Fock and
  # hybrid density functional calculations, the highest accuracy can be obtained by
  # uncommenting the line beginning with "for_aux"  below, thus adding an extra g radial
  # function to the construction of the product basis set for the expansion.
  # See Ref. New J. Phys. 17, 093020 (2015) for more information, particularly Figs. 1 and 6.
  #
  ################################################################################
  #
  # for_aux hydro 5 g 6.0
  ################################################################################
  #
  #  FHI-aims code project
  # Volker Blum, Fritz Haber Institute Berlin, 2009
  #
  #  Suggested "tight" defaults for Ge atom (to be pasted into control.in file)
  #
  ################################################################################
    species        Ge
  #     global species definitions
      nucleus             32
      mass                72.64
  #
      l_hartree           6
  #
      cut_pot             4.0          2.0  1.0
      basis_dep_cutoff    1e-4
  #
      radial_base         54 7.0
      radial_multiplier   2
      angular_grids       specified
        division   0.0947  110
        division   0.1314  194
        division   0.7746  302
        division   0.8710  434
  #      division   0.9770  590
  #      division   1.1356  770
  #      division   2.6430  974
  #      outer_grid  974
        outer_grid  434
  ################################################################################
  #
  #  Definition of "minimal" basis
  #
  ################################################################################
  #     valence basis states
      valence      4  s   2.
      valence      4  p   2.
      valence      3  d  10.
  #     ion occupancy
      ion_occ      4  s   1.
      ion_occ      4  p   1.
      ion_occ      3  d  10.
  ################################################################################
  #
  #  Suggested additional basis functions. For production calculations,
  #  uncomment them one after another (the most important basis functions are
  #  listed first).
  #
  #  Constructed for dimers: 1.80 A, 2.00 A, 2.35 A, 3.00 A, 4.00 A
  #
  ################################################################################
  #  "First tier" - improvements: -329.04 meV to -37.61 meV
       hydro 2 p 1.4
       hydro 3 d 4.3
       hydro 4 f 7.4
       hydro 3 s 3.4
  #  "Second tier" - improvements: -13.91 meV to -1.23 meV
  #     hydro 5 g 10.8
  #     hydro 3 d 2.5
  #     hydro 3 p 3.3
  #     hydro 4 f 12
  #     hydro 6 h 15.6
  #     hydro 3 s 7.2
  #  "Third tier" - improvements: -1.47 meV to -0.40 meV
  #     hydro 3 d 5.8
  #     hydro 4 f 4.3
  #     hydro 5 g 11.6
  #     hydro 5 s 14.8
  #     hydro 4 p 3.9
  #  "Fourth tier"  -improvements: -0.39 meV to -0.11 meV
  #     hydro 4 f 23.2
  #     hydro 2 s 6.2
  #     hydro 5 d 9.8
  #     hydro 5 p 6
  #     hydro 6 h 14.8
  #  Further functions - -0.13 meV and below
  #     hydro 5 f 9.6
  
  -----------------------------------------------------------------------
  Completed first pass over input file control.in .
  -----------------------------------------------------------------------
  
  
  -----------------------------------------------------------------------
  Parsing geometry.in (first pass over file, find array dimensions only).
  The contents of geometry.in will be repeated verbatim below
  unless switched off by setting 'verbatim_writeout .false.' .
  in the first line of geometry.in .
  -----------------------------------------------------------------------
  
  #=======================================================
  # FHI-aims file: /home/gz_fan/Downloads/software/fhiaims/fhiaims/work/test_band/Li5PS4Cl2/volscan/geometry.in.10
  # Created using the Atomic Simulation Environment (ASE)
  # Wed Mar 23 23:26:31 2022
  #=======================================================
  lattice_vector 10.3928997516749995 0.0000000000000000 0.0000000000000000
  lattice_vector 0.0000000000000000 10.3928997516749995 0.0000000000000000
  lattice_vector 0.0000000000000000 0.0000000000000000 10.3928997516749995
  atom 3.2224673924483236 0.2943635049984641 6.9890823420988673 Li
  atom 3.4409021452671875 0.0209819066674449 3.0842433042439557 Li
  atom 7.1007725118309759 3.2942428279055407 0.3042715729431130 Li
  atom 7.3057367787184315 7.0648310689527785 -0.0152949351949463 Li
  atom 0.3322873079935670 7.1499582280429124 3.3412490696646793 Li
  atom 10.0364768587905466 6.9945999485912447 7.1954081794994815 Li
  atom -0.1127795445911081 3.2893348240236397 7.0922606705952012 Li
  atom 3.7343001869209682 5.4498722825455177 1.7416528766452957 Li
  atom 7.0480089073021874 8.5341474740603545 5.3964465635164709 Li
  atom 6.7526014926090632 1.8411813611494328 4.8995535028841068 Li
  atom 3.2681961063042202 8.0954972753714340 5.0077073513127175 Li
  atom 0.0250619660337413 2.2264011757320987 2.1218676399806053 Li
  atom 8.3745605056301198 0.0161726784487156 1.8291164899299894 Li
  atom 8.5140256306125330 10.3096962254079809 8.5760628650020241 Li
  atom 2.3383960482755524 4.0126730009405316 5.2997134556737482 Li
  atom 4.9237860745100015 3.4694213790237338 8.2048766199772718 Li
  atom 8.3520190659367568 4.8701088199596034 3.6801334014178502 Li
  atom 1.7682613947113404 8.7414861202141410 0.1776285175536478 Li
  atom 1.8551964930890286 2.0771063455110261 9.9900560615632283 Li
  atom 5.1060766520365553 7.0758999208813727 8.2958271215131756 Li
  atom 0.0085689859027852 -0.0123806388737885 5.1642220411119428 P
  atom 5.1376340052076239 0.0634762247884818 -0.1407201666360158 P
  atom 0.0535599533004837 5.2388514187848632 0.0817658601090656 P
  atom 5.3100654157118719 5.1150197257363663 5.0590947962186981 P
  atom 1.2081480448198421 9.0745092908767031 6.4058095834391073 S
  atom 9.0263774107259955 1.1617282346758731 6.3590474429479622 S
  atom 9.1633810024887516 9.1169326278976257 3.9078474519436797 S
  atom 1.3296329088285892 1.2911911276977368 4.0700813531370956 S
  atom 6.3810603685297824 1.3574681508340412 9.0244519684359528 S
  atom 6.3130038435492617 9.1739301508807767 1.1218258805428665 S
  atom 3.8600939461980524 9.2151244531217014 8.9995641495311265 S
  atom 3.8818097328564121 1.3552311978242209 1.0221345692767647 S
  atom 9.1596488069880504 6.2561177615665882 1.5167322668285848 S
  atom 1.1187237399780803 6.6259793364275374 9.2425381479620352 S
  atom 9.1914128756791982 3.9702237768870030 9.2804600066272673 S
  atom 1.4918041509362119 4.0737703649041750 1.2210185830578368 S
  atom 6.3859254455013312 6.5631864261830932 3.9046305912033659 S
  atom 6.6413025071174188 3.9817985265902029 6.3121016713828659 S
  atom 4.2901042912196958 3.7924396897675190 3.7031409520210277 S
  atom 3.8103719262706566 6.0482791222058641 6.3503877603419632 S
  atom 2.4851616208711511 2.6183586925992146 7.6167731833812544 Cl
  atom 7.6791050297330354 7.9163529937361012 7.8585480302713506 Cl
  atom 4.9735425385078846 -0.2443703058224502 5.1376004822354417 Cl
  atom 5.4195999776305417 5.2821104684860209 -0.2712598964695178 Cl
  atom -0.0522150647160660 0.2732523708343033 0.1746989412984053 Cl
  atom 0.0315443830807213 5.2049272025656128 5.2744668906077434 Cl
  atom 7.9762066632803155 2.4695033556463826 2.5956194147275653 Cl
  atom 2.5951855780446902 7.9011333053058062 2.5851937789588391 Cl
  
  -----------------------------------------------------------------------
  Completed first pass over input file geometry.in .
  -----------------------------------------------------------------------
  

  Basic array size parameters:
  | Number of species                 :        5
  | Number of atoms                   :       48
  | Number of lattice vectors         :        3
  | Max. basis fn. angular momentum   :        4
  | Max. atomic/ionic basis occupied n:        4
  | Max. number of basis fn. types    :        3
  | Max. radial fns per species/type  :        8
  | Max. logarithmic grid size        :     1414
  | Max. radial integration grid size :      109
  | Max. angular integration grid size:      434
  | Max. angular grid division number :        8
  | Radial grid for Hartree potential :     1414
  | Number of spin channels           :        1

------------------------------------------------------------
          Reading file control.in.
------------------------------------------------------------
  XC: Using PBE gradient-corrected functionals.
  Convergence accuracy of total energy:  0.1000E-05
  Convergence accuracy of sum of eigenvalues:  0.1000E-02
  Convergence accuracy of self-consistent charge density:  0.1000E-05
  Convergence accuracy of forces:  0.1000E-03
  Friction is calculated at temperature of   0.3000E+03 K
  Found k-point grid:         5         5         5
 
  Reading configuration options for species Li                  .
  | Found nuclear charge :   3.0000
  | Found atomic mass :    6.94100000000000      amu
  | Found l_max for Hartree potential  :   6
  | Found cutoff potl. onset [A], width [A], scale factor :    5.00000    2.00000    1.00000
  | Threshold for basis-dependent cutoff potential is   0.100000E-03
  | Found data for basic radial integration grid :    29 points, outermost radius =    7.000 A
  | Found multiplier for basic radial grid :   2
  | Found angular grid specification: user-specified.
  | Specified grid contains     5 separate shells.
  | Check grid settings after all constraints further below.
  | Found free-atom valence shell :  2 s   1.000
  | Found free-ion valence shell :  1 s   2.000
  | Found hydrogenic basis function :  2 p   1.600
  | Found hydrogenic basis function :  2 s   2.000
  | Found hydrogenic basis function :  3 d   2.600
  | Found hydrogenic basis function :  3 p   4.600
  | Found hydrogenic basis function :  2 p   1.800
  | Found hydrogenic basis function :  3 s   6.200
  | Found hydrogenic basis function :  4 d   4.700
  | Found hydrogenic basis function :  4 f   4.100
  Species Li                  : Missing cutoff potential type.
  Defaulting to exp(1/x)/(1-x)^2 type cutoff potential.
  Species Li: No 'logarithmic' tag. Using default grid for free atom:
  | Default logarithmic grid data [bohr] : 0.1000E-03 0.1000E+03 0.1012E+01
  Species Li: On-site basis accuracy parameter (for Gram-Schmidt orthonormalisation) not specified.
  Using default value basis_acc =  0.1000000E-03.
  Species Li                  : Using default innermost maximum threshold i_radial=  2 for radial functions.
  Species Li                  : Default cutoff onset for free atom density etc. : 0.50000000E+01 AA.
  Species Li                  : Basic radial grid will be enhanced according to radial_multiplier =   2, to contain    59 grid points.
 
  Reading configuration options for species P                   .
  | Found nuclear charge :  15.0000
  | Found atomic mass :    30.9737620000000      amu
  | Found l_max for Hartree potential  :   6
  | Found cutoff potl. onset [A], width [A], scale factor :    4.00000    2.00000    1.00000
  | Threshold for basis-dependent cutoff potential is   0.100000E-03
  | Found data for basic radial integration grid :    43 points, outermost radius =    7.000 A
  | Found multiplier for basic radial grid :   2
  | Found angular grid specification: user-specified.
  | Specified grid contains     6 separate shells.
  | Check grid settings after all constraints further below.
  | Found free-atom valence shell :  3 s   2.000
  | Found free-atom valence shell :  3 p   3.000
  | Found free-ion valence shell :  3 s   1.000
  | Found free-ion valence shell :  3 p   2.000
  | Found ionic basis function :  3 d , default cutoff radius.
  | Found ionic basis function :  3 p , default cutoff radius.
  | Found hydrogenic basis function :  4 f   6.200
  | Found hydrogenic basis function :  5 g   8.600
  | Found ionic basis function :  3 s , default cutoff radius.
  | Found hydrogenic basis function :  4 d   6.200
  Species P                   : Missing cutoff potential type.
  Defaulting to exp(1/x)/(1-x)^2 type cutoff potential.
  Species P : No 'logarithmic' tag. Using default grid for free atom:
  | Default logarithmic grid data [bohr] : 0.1000E-03 0.1000E+03 0.1012E+01
  | Will include ionic basis functions of  2.0-fold positive P                    ion.
  Species P : On-site basis accuracy parameter (for Gram-Schmidt orthonormalisation) not specified.
  Using default value basis_acc =  0.1000000E-03.
  Species P                   : Using default innermost maximum threshold i_radial=  2 for radial functions.
  Species P                   : Default cutoff onset for free atom density etc. : 0.40000000E+01 AA.
  Species P                   : Basic radial grid will be enhanced according to radial_multiplier =   2, to contain    87 grid points.
 
  Reading configuration options for species S                   .
  | Found nuclear charge :  16.0000
  | Found atomic mass :    32.0650000000000      amu
  | Found l_max for Hartree potential  :   6
  | Found cutoff potl. onset [A], width [A], scale factor :    4.00000    2.00000    1.00000
  | Threshold for basis-dependent cutoff potential is   0.100000E-03
  | Found data for basic radial integration grid :    44 points, outermost radius =    7.000 A
  | Found multiplier for basic radial grid :   2
  | Found angular grid specification: user-specified.
  | Specified grid contains     5 separate shells.
  | Check grid settings after all constraints further below.
  | Found free-atom valence shell :  3 s   2.000
  | Found free-atom valence shell :  3 p   4.000
  | Found free-ion valence shell :  3 s   1.000
  | Found free-ion valence shell :  3 p   3.000
  | Found ionic basis function :  3 d , default cutoff radius.
  | Found hydrogenic basis function :  2 p   1.800
  | Found hydrogenic basis function :  4 f   7.000
  | Found ionic basis function :  3 s , default cutoff radius.
  | Found hydrogenic basis function :  4 d   6.200
  | Found hydrogenic basis function :  5 g  10.800
  Species S                   : Missing cutoff potential type.
  Defaulting to exp(1/x)/(1-x)^2 type cutoff potential.
  Species S : No 'logarithmic' tag. Using default grid for free atom:
  | Default logarithmic grid data [bohr] : 0.1000E-03 0.1000E+03 0.1012E+01
  | Will include ionic basis functions of  2.0-fold positive S                    ion.
  Species S : On-site basis accuracy parameter (for Gram-Schmidt orthonormalisation) not specified.
  Using default value basis_acc =  0.1000000E-03.
  Species S                   : Using default innermost maximum threshold i_radial=  2 for radial functions.
  Species S                   : Default cutoff onset for free atom density etc. : 0.40000000E+01 AA.
  Species S                   : Basic radial grid will be enhanced according to radial_multiplier =   2, to contain    89 grid points.
 
  Reading configuration options for species Cl                  .
  | Found nuclear charge :  17.0000
  | Found atomic mass :    35.4530000000000      amu
  | Found l_max for Hartree potential  :   6
  | Found cutoff potl. onset [A], width [A], scale factor :    4.00000    2.00000    1.00000
  | Threshold for basis-dependent cutoff potential is   0.100000E-03
  | Found data for basic radial integration grid :    45 points, outermost radius =    7.000 A
  | Found multiplier for basic radial grid :   2
  | Found angular grid specification: user-specified.
  | Specified grid contains     5 separate shells.
  | Check grid settings after all constraints further below.
  | Found free-atom valence shell :  3 s   2.000
  | Found free-atom valence shell :  3 p   5.000
  | Found free-ion valence shell :  3 s   1.000
  | Found free-ion valence shell :  3 p   4.000
  | Found ionic basis function :  3 d , default cutoff radius.
  | Found hydrogenic basis function :  2 p   1.900
  | Found hydrogenic basis function :  4 f   7.400
  | Found ionic basis function :  3 s , default cutoff radius.
  | Found hydrogenic basis function :  5 g  10.400
  | Found hydrogenic basis function :  3 d   3.300
  Species Cl                  : Missing cutoff potential type.
  Defaulting to exp(1/x)/(1-x)^2 type cutoff potential.
  Species Cl: No 'logarithmic' tag. Using default grid for free atom:
  | Default logarithmic grid data [bohr] : 0.1000E-03 0.1000E+03 0.1012E+01
  | Will include ionic basis functions of  2.0-fold positive Cl                   ion.
  Species Cl: On-site basis accuracy parameter (for Gram-Schmidt orthonormalisation) not specified.
  Using default value basis_acc =  0.1000000E-03.
  Species Cl                  : Using default innermost maximum threshold i_radial=  2 for radial functions.
  Species Cl                  : Default cutoff onset for free atom density etc. : 0.40000000E+01 AA.
  Species Cl                  : Basic radial grid will be enhanced according to radial_multiplier =   2, to contain    91 grid points.
 
  Reading configuration options for species Ge                  .
  | Found nuclear charge :  32.0000
  | Found atomic mass :    72.6400000000000      amu
  | Found l_max for Hartree potential  :   6
  | Found cutoff potl. onset [A], width [A], scale factor :    4.00000    2.00000    1.00000
  | Threshold for basis-dependent cutoff potential is   0.100000E-03
  | Found data for basic radial integration grid :    54 points, outermost radius =    7.000 A
  | Found multiplier for basic radial grid :   2
  | Found angular grid specification: user-specified.
  | Specified grid contains     5 separate shells.
  | Check grid settings after all constraints further below.
  | Found free-atom valence shell :  4 s   2.000
  | Found free-atom valence shell :  4 p   2.000
  | Found free-atom valence shell :  3 d  10.000
  | Found free-ion valence shell :  4 s   1.000
  | Found free-ion valence shell :  4 p   1.000
  | Found free-ion valence shell :  3 d  10.000
  | Found hydrogenic basis function :  2 p   1.400
  | Found hydrogenic basis function :  3 d   4.300
  | Found hydrogenic basis function :  4 f   7.400
  | Found hydrogenic basis function :  3 s   3.400
  Species Ge                  : Missing cutoff potential type.
  Defaulting to exp(1/x)/(1-x)^2 type cutoff potential.
  Species Ge: No 'logarithmic' tag. Using default grid for free atom:
  | Default logarithmic grid data [bohr] : 0.1000E-03 0.1000E+03 0.1012E+01
  Species Ge: On-site basis accuracy parameter (for Gram-Schmidt orthonormalisation) not specified.
  Using default value basis_acc =  0.1000000E-03.
  Species Ge                  : Using default innermost maximum threshold i_radial=  2 for radial functions.
  Species Ge                  : Default cutoff onset for free atom density etc. : 0.40000000E+01 AA.
  Species Ge                  : Basic radial grid will be enhanced according to radial_multiplier =   2, to contain   109 grid points.
 
  Finished reading input file 'control.in'. Consistency checks are next.
 
  MPI_IN_PLACE appears to work with this MPI implementation.
  | Keeping use_mpi_in_place .true. (see manual).
  Target number of points in a grid batch is not set. Defaulting to  100
  Method for grid partitioning is not set. Defaulting to parallel hash+maxmin partitioning.
  Batch size limit is not set. Defaulting to    200
  By default, will store active basis functions for each batch.
  If in need of memory, prune_basis_once .false. can be used to disable this option.
  communication_type for Hartree potential was not specified.
  Defaulting to calc_hartree .
  Defaulting to Pulay charge density mixer.
  Pulay mixer: Number of relevant iterations not set.
  Defaulting to    8 iterations.
  Pulay mixer: Number of initial linear mixing iterations not set.
  Defaulting to    0 iterations.
  Work space size for distributed Hartree potential not set.
  Defaulting to   0.200000E+03 MB.
  Mixing parameter for charge density mixing has not been set.
  Using default: charge_mix_param =     0.0500.
  The mixing parameter will be adjusted in iteration number     2 of the first full s.c.f. cycle only.
  Algorithm-dependent basis array size parameters:
  | n_max_pulay                         :        8
  Maximum number of self-consistency iterations not provided.
  Presetting  1000 iterations.
  Presetting      1001 iterations before the initial mixing cycle
  is restarted anyway using the sc_init_iter criterion / keyword.
  Presetting a factor      1.000 between actual scf density residual
  and density convergence criterion sc_accuracy_rho below which sc_init_iter
  takes no effect.
  Geometry relaxation not requested: no relaxation will be performed.
  Handling of forces: Unphysical translation and rotation will be removed from forces.
  No accuracy limit for integral partition fn. given. Defaulting to  0.1000E-14.
  No threshold value for u(r) in integrations given. Defaulting to  0.1000E-05.
  No occupation type (smearing scheme) given. Defaulting to Gaussian broadening, width =  0.1000E-01 eV.
  The width will be adjusted in iteration number     2 of the first full s.c.f. cycle only.
  S.C.F. convergence parameters will be adjusted in iteration number     2 of the first full s.c.f. cycle only.
  No accuracy for occupation numbers given. Defaulting to  0.1000E-12.
  No threshold value for occupation numbers given. Defaulting to  0.0000E+00.
  No accuracy for fermi level given. Defaulting to  0.1000E-19.
  Maximum # of iterations to find E_F not set. Defaulting to  200.
  Preferred method for the eigenvalue solver ('KS_method') not specified in 'control.in'.
  Defaulting to serial version, 'lapack_fast', since more k-points than CPUs available.
  Will not use alltoall communication since running on < 1024 CPUs.
  Threshold for basis singularities not set.
  Default threshold for basis singularities:  0.1000E-04
  partition_type (choice of integration weights) for integrals was not specified.
  | Using a version of the partition function of Stratmann and coworkers ('stratmann_smoother').
  | At each grid point, the set of atoms used to build the partition table is smoothly restricted to
  | only those atoms whose free-atom density would be non-zero at that grid point.
  Partitioning for Hartree potential was not defined. Using partition_type for integrals.
  | Adjusted default value of keyword multip_moments_threshold to:       0.10000000E-11
  | This value may affect high angular momentum components of the Hartree potential in periodic systems.
  Spin handling was not defined in control.in. Defaulting to unpolarized case.
  Angular momentum expansion for Kerker preconditioner not set explicitly.
  | Using default value of   0
  No explicit requirement for turning off preconditioner.
  | By default, it will be turned off when the charge convergence reaches
  | sc_accuracy_rho  =   0.100000E-05
  | sc_accuracy_eev  =   0.100000E-02
  | sc_accuracy_etot =   0.100000E-05
  No special mixing parameter while Kerker preconditioner is on.
  Using default: charge_mix_param =     0.0500.
  No q(lm)/r^(l+1) cutoff set for long-range Hartree potential.
  | Using default value of  0.100000E-09 .
  | Verify using the multipole_threshold keyword.
  Defaulting to new monopole extrapolation.
  Density update method: automatic selection selected.
  Using density matrix based charge density update.
  Using density matrix based charge density update.
  Using packed matrix style: index .
  Defaulting to use time-reversal symmetry for k-point grid.
------------------------------------------------------------


------------------------------------------------------------
          Reading geometry description geometry.in.
------------------------------------------------------------
 * Warning! You did not set the 'relativistic' flag in input file 'control.in'.
 * Since you are not attempting to treat any elements beyond Ca(Z=20), FHI-aims
 * will default to 'relativistic none'.
 * You must ensure that this is really what you want!!
 * For example, DO NOT compute total-energy differences between results from
 * different settings of the 'relativistic' flag.
  Input structure read successfully.
  The structure contains       48 atoms,  and a total of        512.000 electrons.

  Input geometry:
  | Unit cell:
  |       10.39289975        0.00000000        0.00000000
  |        0.00000000       10.39289975        0.00000000
  |        0.00000000        0.00000000       10.39289975
  | Atomic structure:
  |       Atom                x [A]            y [A]            z [A]
  |    1: Species Li            3.22246739        0.29436350        6.98908234
  |    2: Species Li            3.44090215        0.02098191        3.08424330
  |    3: Species Li            7.10077251        3.29424283        0.30427157
  |    4: Species Li            7.30573678        7.06483107       -0.01529494
  |    5: Species Li            0.33228731        7.14995823        3.34124907
  |    6: Species Li           10.03647686        6.99459995        7.19540818
  |    7: Species Li           -0.11277954        3.28933482        7.09226067
  |    8: Species Li            3.73430019        5.44987228        1.74165288
  |    9: Species Li            7.04800891        8.53414747        5.39644656
  |   10: Species Li            6.75260149        1.84118136        4.89955350
  |   11: Species Li            3.26819611        8.09549728        5.00770735
  |   12: Species Li            0.02506197        2.22640118        2.12186764
  |   13: Species Li            8.37456051        0.01617268        1.82911649
  |   14: Species Li            8.51402563       10.30969623        8.57606287
  |   15: Species Li            2.33839605        4.01267300        5.29971346
  |   16: Species Li            4.92378607        3.46942138        8.20487662
  |   17: Species Li            8.35201907        4.87010882        3.68013340
  |   18: Species Li            1.76826139        8.74148612        0.17762852
  |   19: Species Li            1.85519649        2.07710635        9.99005606
  |   20: Species Li            5.10607665        7.07589992        8.29582712
  |   21: Species P             0.00856899       -0.01238064        5.16422204
  |   22: Species P             5.13763401        0.06347622       -0.14072017
  |   23: Species P             0.05355995        5.23885142        0.08176586
  |   24: Species P             5.31006542        5.11501973        5.05909480
  |   25: Species S             1.20814804        9.07450929        6.40580958
  |   26: Species S             9.02637741        1.16172823        6.35904744
  |   27: Species S             9.16338100        9.11693263        3.90784745
  |   28: Species S             1.32963291        1.29119113        4.07008135
  |   29: Species S             6.38106037        1.35746815        9.02445197
  |   30: Species S             6.31300384        9.17393015        1.12182588
  |   31: Species S             3.86009395        9.21512445        8.99956415
  |   32: Species S             3.88180973        1.35523120        1.02213457
  |   33: Species S             9.15964881        6.25611776        1.51673227
  |   34: Species S             1.11872374        6.62597934        9.24253815
  |   35: Species S             9.19141288        3.97022378        9.28046001
  |   36: Species S             1.49180415        4.07377036        1.22101858
  |   37: Species S             6.38592545        6.56318643        3.90463059
  |   38: Species S             6.64130251        3.98179853        6.31210167
  |   39: Species S             4.29010429        3.79243969        3.70314095
  |   40: Species S             3.81037193        6.04827912        6.35038776
  |   41: Species Cl            2.48516162        2.61835869        7.61677318
  |   42: Species Cl            7.67910503        7.91635299        7.85854803
  |   43: Species Cl            4.97354254       -0.24437031        5.13760048
  |   44: Species Cl            5.41959998        5.28211047       -0.27125990
  |   45: Species Cl           -0.05221506        0.27325237        0.17469894
  |   46: Species Cl            0.03154438        5.20492720        5.27446689
  |   47: Species Cl            7.97620666        2.46950336        2.59561941
  |   48: Species Cl            2.59518558        7.90113331        2.58519378

  Lattice parameters for 3D lattice (in Angstroms) :    10.392900   10.392900   10.392900
  Angle(s) between unit vectors (in degrees)      :    90.000000   90.000000   90.000000

  |

  | The smallest distance between any two atoms is         2.13935407 AA.
  |
  | The first atom of this pair is atom number                     23 .
  | The second atom of this pair is atom number                    34 .
  | Wigner-Seitz cell of the first atom image           0     0     0 .
  | (The Wigner-Seitz cell of the second atom is 0 0 0  by definition.)

  Symmetry information by spglib:
  | Precision set to  0.1E-04
  | Number of Operations  : 1
  | Space group           : 1
  | International         : P1
  | Schoenflies           : C1^1

  Quantities derived from the lattice vectors:
  | Reciprocal lattice vector 1:  0.604565  0.000000  0.000000
  | Reciprocal lattice vector 2:  0.000000  0.604565  0.000000
  | Reciprocal lattice vector 3:  0.000000  0.000000  0.604565
  | Unit cell volume                               :   0.112256E+04  A^3

  Range separation radius for Ewald summation (hartree_convergence_parameter):      4.11550314 bohr.

  Fractional coordinates:
                         L1                L2                L3
       atom_frac         0.31006432        0.02832352        0.67248627  Li
       atom_frac         0.33108201        0.00201887        0.29676446  Li
       atom_frac         0.68323304        0.31697052        0.02927687  Li
       atom_frac         0.70295461        0.67977477       -0.00147167  Li
       atom_frac         0.03197253        0.68796567        0.32149344  Li
       atom_frac         0.96570515        0.67301717        0.69233884  Li
       atom_frac        -0.01085160        0.31649827        0.68241404  Li
       atom_frac         0.35931263        0.52438419        0.16758103  Li
       atom_frac         0.67815615        0.82115172        0.51924359  Li
       atom_frac         0.64973219        0.17715762        0.47143277  Li
       atom_frac         0.31446432        0.77894500        0.48183928  Li
       atom_frac         0.00241145        0.21422329        0.20416512  Li
       atom_frac         0.80579633        0.00155613        0.17599674  Li
       atom_frac         0.81921560        0.99199420        0.82518480  Li
       atom_frac         0.22499938        0.38609754        0.50993597  Li
       atom_frac         0.47376442        0.33382612        0.78946943  Li
       atom_frac         0.80362741        0.46859961        0.35410073  Li
       atom_frac         0.17014129        0.84110175        0.01709133  Li
       atom_frac         0.17850615        0.19985821        0.96123857  Li
       atom_frac         0.49130433        0.68083981        0.79822064  Li
       atom_frac         0.00082450       -0.00119126        0.49689905  P
       atom_frac         0.49434076        0.00610765       -0.01354003  P
       atom_frac         0.00515351        0.50407986        0.00786747  P
       atom_frac         0.51093203        0.49216483        0.48678376  P
       atom_frac         0.11624745        0.87314508        0.61636403  S
       atom_frac         0.86851385        0.11178095        0.61186460  S
       atom_frac         0.88169628        0.87722703        0.37601127  S
       atom_frac         0.12793666        0.12423781        0.39162134  S
       atom_frac         0.61398267        0.13061496        0.86832859  S
       atom_frac         0.60743431        0.88271131        0.10794157  S
       atom_frac         0.37141645        0.88667501        0.86593389  S
       atom_frac         0.37350593        0.13039972        0.09834931  S
       atom_frac         0.88133717        0.60196075        0.14593928  S
       atom_frac         0.10764308        0.63754866        0.88931274  S
       atom_frac         0.88439349        0.38201309        0.89296156  S
       atom_frac         0.14354070        0.39197630        0.11748584  S
       atom_frac         0.61445079        0.63150676        0.37570175  S
       atom_frac         0.63902305        0.38312681        0.60734750  S
       atom_frac         0.41279185        0.36490679        0.35631451  S
       atom_frac         0.36663222        0.58196262        0.61103137  S
       atom_frac         0.23912110        0.25193726        0.73288239  Cl
       atom_frac         0.73887993        0.76170782        0.75614585  Cl
       atom_frac         0.47855196       -0.02351320        0.49433754  Cl
       atom_frac         0.52147140        0.50824222       -0.02610050  Cl
       atom_frac        -0.00502411        0.02629222        0.01680945  Cl
       atom_frac         0.00303519        0.50081568        0.50750676  Cl
       atom_frac         0.76746691        0.23761447        0.24974930  Cl
       atom_frac         0.24970755        0.76024339        0.24874615  Cl

  Number of empty states per atom not set in control.in - providing a guess from actual geometry.
  | Total number of empty states used during s.c.f. cycle:      114
  If you use a very high smearing, use empty_states (per atom!) in control.in to increase this value.

  Structure-dependent array size parameters: 
  | Maximum number of distinct radial functions  :       55
  | Maximum number of basis functions            :     1692
  | Number of Kohn-Sham states (occupied + empty):      370
------------------------------------------------------------

------------------------------------------------------------
          Preparing all fixed parts of the calculation.
------------------------------------------------------------
  Determining machine precision:
    2.225073858507201E-308
  Setting up grids for atomic and cluster calculations.

  Creating wave function, potential, and density for free atoms.

  Species: Li

  List of occupied orbitals and eigenvalues:
    n    l              occ      energy [Ha]    energy [eV]
    1    0           2.0000        -1.901473       -51.7417
    2    0           1.0000        -0.103132        -2.8064


  Species: P

  List of occupied orbitals and eigenvalues:
    n    l              occ      energy [Ha]    energy [eV]
    1    0           2.0000       -76.356288     -2077.7603
    2    0           2.0000        -6.358286      -173.0178
    3    0           2.0000        -0.509419       -13.8620
    2    1           6.0000        -4.573976      -124.4642
    3    1           3.0000        -0.201560        -5.4847


  Species: S

  List of occupied orbitals and eigenvalues:
    n    l              occ      energy [Ha]    energy [eV]
    1    0           2.0000       -88.108280     -2397.5483
    2    0           2.0000        -7.732485      -210.4116
    3    0           2.0000        -0.629532       -17.1304
    2    1           6.0000        -5.750324      -156.4743
    3    1           4.0000        -0.257562        -7.0086


  Species: Cl

  List of occupied orbitals and eigenvalues:
    n    l              occ      energy [Ha]    energy [eV]
    1    0           2.0000      -100.710795     -2740.4802
    2    0           2.0000        -9.222997      -250.9705
    3    0           2.0000        -0.754245       -20.5241
    2    1           6.0000        -7.039872      -191.5647
    3    1           5.0000        -0.316221        -8.6048


  Species: Ge

  List of occupied orbitals and eigenvalues:
    n    l              occ      energy [Ha]    energy [eV]
    1    0           2.0000      -397.001973    -10802.9733
    2    0           2.0000       -49.131904     -1336.9471
    3    0           2.0000        -5.983904      -162.8303
    4    0           2.0000        -0.415506       -11.3065
    2    1           6.0000       -43.739541     -1190.2135
    3    1           6.0000        -4.198710      -114.2527
    4    1           2.0000        -0.141032        -3.8377
    3    2          10.0000        -1.103726       -30.0339

  Creating fixed part of basis set: Ionic, confined, hydrogenic.
 
  Li                   hydrogenic:
 
  List of hydrogenic basis orbitals: 
    n    l      effective z      eigenvalue [eV]  inner max. [A]     outer max. [A]     outer radius [A]   
    2    1         1.600000        -8.7048           1.319365           1.319365           6.386418
    2    0         2.000000       -13.6052           0.203259           1.385485           6.232164
    3    2         2.600000       -10.2084           1.835332           1.835332           6.386418
    3    1         4.600000       -31.9883           0.343834           1.385485           5.381805
    2    1         1.800000       -11.0199           1.181903           1.181903           6.386418
    3    0         6.200000       -58.1113           0.062858           1.111823           4.371906
    4    2         4.700000       -18.7772           0.761113           2.401695           6.386418
    4    3         4.100000       -14.2833           2.073992           2.073992           6.386418
 
 
  P                    ion:

  List of free ionic orbitals and eigenvalues:
    n    l      energy [Ha]    energy [eV]
    1    0       -77.297133     -2103.3620
    2    0        -7.273914      -197.9333
    3    0        -1.267536       -34.4914
    2    1        -5.491316      -149.4263
    3    1        -0.913470       -24.8568


  List of ionic basis orbitals and eigenvalues:
    n    l      energy [Ha]    energy [eV]    outer radius [A]
    3    2        -0.458060       -12.4644       5.404780
    3    1        -0.913461       -24.8565       4.724723
    3    0        -1.267529       -34.4912       4.232463

 
  P                    hydrogenic:
 
  List of hydrogenic basis orbitals: 
    n    l      effective z      eigenvalue [eV]  inner max. [A]     outer max. [A]     outer radius [A]   
    4    3         6.200000       -32.6870           1.357793           1.357793           5.339109
    5    4         8.600000       -40.2502           1.534356           1.534356           5.404780
    4    2         6.200000       -32.6848           0.577014           1.820771           5.404780
 
 
  S                    ion:

  List of free ionic orbitals and eigenvalues:
    n    l      energy [Ha]    energy [eV]
    1    0       -89.127201     -2425.2745
    2    0        -8.724378      -237.4024
    3    0        -1.464668       -39.8556
    2    1        -6.744348      -183.5230
    3    1        -1.048520       -28.5317


  List of ionic basis orbitals and eigenvalues:
    n    l      energy [Ha]    energy [eV]    outer radius [A]
    3    2        -0.496514       -13.5108       5.386362
    3    0        -1.464662       -39.8555       3.967934

 
  S                    hydrogenic:
 
  List of hydrogenic basis orbitals: 
    n    l      effective z      eigenvalue [eV]  inner max. [A]     outer max. [A]     outer radius [A]   
    2    1         1.800000       -11.0118           1.168531           1.168531           5.452614
    4    3         7.000000       -41.6672           1.212182           1.212182           5.066981
    4    2         6.200000       -32.6848           0.582121           1.814567           5.386362
    5    4        10.800000       -63.4785           1.227092           1.227092           4.766538
 
 
  Cl                   ion:

  List of free ionic orbitals and eigenvalues:
    n    l      energy [Ha]    energy [eV]
    1    0      -101.807232     -2770.3157
    2    0       -10.290876      -280.0290
    3    0        -1.664625       -45.2967
    2    1        -8.110237      -220.6908
    3    1        -1.183915       -32.2160


  List of ionic basis orbitals and eigenvalues:
    n    l      energy [Ha]    energy [eV]    outer radius [A]
    3    2        -0.529392       -14.4055       5.389057
    3    0        -1.664620       -45.2966       3.780461

 
  Cl                   hydrogenic:
 
  List of hydrogenic basis orbitals: 
    n    l      effective z      eigenvalue [eV]  inner max. [A]     outer max. [A]     outer radius [A]   
    2    1         1.900000       -12.2741           1.113321           1.113321           5.389057
    4    3         7.400000       -46.5653           1.140877           1.140877           4.886961
    5    4        10.400000       -58.8635           1.273568           1.273568           4.886961
    3    2         3.300000       -16.4532           1.439178           1.439178           5.455343
 
 
  Ge                   hydrogenic:
 
  List of hydrogenic basis orbitals: 
    n    l      effective z      eigenvalue [eV]  inner max. [A]     outer max. [A]     outer radius [A]   
    2    1         1.400000        -6.6027           1.497690           1.497690           5.472700
    3    2         4.300000       -27.9518           1.103293           1.103293           5.275625
    4    3         7.400000       -46.5653           1.144507           1.144507           4.902509
    3    0         3.400000       -17.4423           0.114943           2.033073           5.472700
 

  Adding cutoff potential to free-atom effective potential.
  Creating atomic-like basis functions for current effective potential.

  Species Li                  :

  List of atomic basis orbitals and eigenvalues:
    n    l      energy [Ha]    energy [eV]    outer radius [A]
    1    0        -1.901473       -51.7417       4.318785
    2    0        -0.103132        -2.8064       6.464971


  Species P                   :

  List of atomic basis orbitals and eigenvalues:
    n    l      energy [Ha]    energy [eV]    outer radius [A]
    1    0       -76.356288     -2077.7603       0.736837
    2    0        -6.358286      -173.0178       2.532824
    3    0        -0.509419       -13.8620       5.274236
    2    1        -4.573976      -124.4642       2.862183
    3    1        -0.201560        -5.4847       5.404780


  Species S                   :

  List of atomic basis orbitals and eigenvalues:
    n    l      energy [Ha]    energy [eV]    outer radius [A]
    1    0       -88.108280     -2397.5483       0.682391
    2    0        -7.732485      -210.4116       2.317169
    3    0        -0.629532       -17.1304       5.256262
    2    1        -5.750324      -156.4743       2.555240
    3    1        -0.257562        -7.0086       5.386362


  Species Cl                  :

  List of atomic basis orbitals and eigenvalues:
    n    l      energy [Ha]    energy [eV]    outer radius [A]
    1    0      -100.710795     -2740.4802       0.642251
    2    0        -9.222997      -250.9705       2.128190
    3    0        -0.754245       -20.5241       5.194994
    2    1        -7.039872      -191.5647       2.346844
    3    1        -0.316221        -8.6048       5.323577


  Species Ge                  :

  List of atomic basis orbitals and eigenvalues:
    n    l      energy [Ha]    energy [eV]    outer radius [A]
    1    0      -397.001973    -10802.9733       0.332955
    2    0       -49.131904     -1336.9471       0.964471
    3    0        -5.983904      -162.8303       2.660457
    4    0        -0.415506       -11.3065       5.340515
    2    1       -43.739541     -1190.2135       0.988343
    3    1        -4.198710      -114.2527       3.043392
    4    1        -0.141032        -3.8377       5.406203
    3    2        -1.103726       -30.0339       4.842941

  Assembling full basis from fixed parts.
  | Species Li :   atomic orbital   1 s accepted.
  | Species Li :    hydro orbital   3 s accepted.
  | Species Li :    hydro orbital   2 s accepted.
  | Species Li :   atomic orbital   2 s accepted.
  | Species Li :    hydro orbital   3 p accepted.
  | Species Li :    hydro orbital   2 p accepted.
  | Species Li :    hydro orbital   2 p accepted.
  | Species Li :    hydro orbital   3 d accepted.
  | Species Li :    hydro orbital   4 d accepted.
  | Species Li :    hydro orbital   4 f accepted.
  | Species P :   atomic orbital   1 s accepted.
  | Species P :   atomic orbital   2 s accepted.
  | Species P :    ionic orbital   3 s accepted.
  | Species P :   atomic orbital   3 s accepted.
  | Species P :   atomic orbital   2 p accepted.
  | Species P :    ionic orbital   3 p accepted.
  | Species P :   atomic orbital   3 p accepted.
  | Species P :    ionic orbital   3 d accepted.
  | Species P :    hydro orbital   4 d accepted.
  | Species P :    hydro orbital   4 f accepted.
  | Species P :    hydro orbital   5 g accepted.
  | Species S :   atomic orbital   1 s accepted.
  | Species S :   atomic orbital   2 s accepted.
  | Species S :    ionic orbital   3 s accepted.
  | Species S :   atomic orbital   3 s accepted.
  | Species S :   atomic orbital   2 p accepted.
  | Species S :   atomic orbital   3 p accepted.
  | Species S :    hydro orbital   2 p accepted.
  | Species S :    ionic orbital   3 d accepted.
  | Species S :    hydro orbital   4 d accepted.
  | Species S :    hydro orbital   4 f accepted.
  | Species S :    hydro orbital   5 g accepted.
  | Species Cl :   atomic orbital   1 s accepted.
  | Species Cl :   atomic orbital   2 s accepted.
  | Species Cl :    ionic orbital   3 s accepted.
  | Species Cl :   atomic orbital   3 s accepted.
  | Species Cl :   atomic orbital   2 p accepted.
  | Species Cl :   atomic orbital   3 p accepted.
  | Species Cl :    hydro orbital   2 p accepted.
  | Species Cl :    ionic orbital   3 d accepted.
  | Species Cl :    hydro orbital   3 d accepted.
  | Species Cl :    hydro orbital   4 f accepted.
  | Species Cl :    hydro orbital   5 g accepted.
  | Species Ge :   atomic orbital   1 s accepted.
  | Species Ge :   atomic orbital   2 s accepted.
  | Species Ge :   atomic orbital   3 s accepted.
  | Species Ge :   atomic orbital   4 s accepted.
  | Species Ge :    hydro orbital   3 s accepted.
  | Species Ge :   atomic orbital   2 p accepted.
  | Species Ge :   atomic orbital   3 p accepted.
  | Species Ge :   atomic orbital   4 p accepted.
  | Species Ge :    hydro orbital   2 p accepted.
  | Species Ge :   atomic orbital   3 d accepted.
  | Species Ge :    hydro orbital   3 d accepted.
  | Species Ge :    hydro orbital   4 f accepted.
 
  Basis size parameters after reduction:
  | Total number of radial functions:       55
  | Total number of basis functions :     1692
 
  Per-task memory consumption for arrays in subroutine allocate_ext:
  |          14.980084MB.
  Testing on-site integration grid accuracy.
  |  Species  Function  <phi|h_atom|phi> (log., in eV)  <phi|h_atom|phi> (rad., in eV)
           1        1                -51.7417001117                -51.7417000312
           1        2                 33.5927188637                 33.5926505054
           1        3                 69.1469416012                 69.1473382425
           1        4                 48.8336153902                 48.8810182289 ***
           1        5                 17.1749490570                 17.1749098864
           1        6                 32.1201183828                 32.1217831653
           1        7                  6.0166019876                  6.0249480535
           1        8                  4.9175332206                  4.9194842525
           1        9                 28.8010599263                 28.8011051086
           1       10                  9.9331480983                  9.9353515081
           2       11              -2077.7602992527              -2077.7602630746
           2       12               -173.0177635265               -173.0177629291
           2       13                -13.5620523038                -13.5620521963
           2       14                  6.3015351439                  6.3015396353
           2       15               -124.4642131574               -124.4642129967
           2       16                 -4.8468074573                 -4.8468065719
           2       17                  5.8113348591                  5.8108493787
           2       18                  5.1218113540                  5.1217878152
           2       19                 22.1386653152                 22.1386624883
           2       20                 19.3047268689                 19.3047231214
           2       21                 30.3235883931                 30.3235836780
           3       22              -2397.5482725833              -2397.5482291499
           3       23               -210.4116306505               -210.4116300246
           3       24                -16.8591546483                -16.8591544436
           3       25                  7.5848976656                  7.5849001027
           3       26               -156.4742745766               -156.4742744285
           3       27                 -7.0089268331                 -7.0089287934
           3       28                  6.8790437028                  6.8789536772
           3       29                  6.0023049431                  6.0023019693
           3       30                 19.5634804122                 19.5634829634
           3       31                 24.6809503130                 24.6809503093
           3       32                 47.5107032033                 47.5107040524
           4       33              -2740.4801671239              -2740.4801157382
           4       34               -250.9705040601               -250.9705032686
           4       35                -20.2716828479                -20.2716826054
           4       36                  9.0161300765                  9.0161279813
           4       37               -191.5646602865               -191.5646600866
           4       38                 -8.6049187754                 -8.6049181478
           4       39                  7.6458046208                  7.6458222053
           4       40                  6.9765726558                  6.9765744583
           4       41                 16.6546700656                 16.6546956458
           4       42                 28.0343243807                 28.0343233726
           4       43                 45.0370063060                 45.0370052039
           5       44             -10802.9733414751             -10802.9729425948
           5       45              -1336.9471188055              -1336.9471110723
           5       46               -162.8303199730               -162.8303191139
           5       47                -11.3065970458                -11.3065974621
           5       48                  3.9107640727                  3.9106883215
           5       49              -1190.2134555916              -1190.2134541175
           5       50               -114.2527084804               -114.2527080190
           5       51                 -3.8416627318                 -3.8416744430
           5       52                  4.9939274213                  4.9938228637
           5       53                -30.0339196701                -30.0339195807
           5       54                  9.6865334021                  9.6865320095
           5       55                 25.2138836360                 25.2138837585
 * Note: Onsite integrals marked "***" above are less accurate than
 * onsite_accuracy_threshold =    0.03000 eV. Usually, this is harmless.
 * When in doubt, tighten the "radial" and/or "radial_multiplier" flags to check.

  Preparing densities etc. for the partition functions (integrals / Hartree potential).

  Preparations completed.
  max(cpu_time)          :      0.591 s.
  Wall clock time (cpu1) :      0.595 s.
------------------------------------------------------------

------------------------------------------------------------
          Begin self-consistency loop: Initialization.

          Date     :  20220324, Time     :  054113.140
------------------------------------------------------------

  Initializing index lists of integration centers etc. from given atomic structure:
  Mapping all atomic coordinates to central unit cell.

  Initializing the k-points
          Using symmetry for reducing the k-points
  | k-points reduced from:      125 to       63
  | Number of k-points                             :        63
  The eigenvectors in the calculations are COMPLEX.
  | K-points in task   0:         3
  | K-points in task   1:         4
  | K-points in task   2:         4
  | K-points in task   3:         4
  | K-points in task   4:         3
  | K-points in task   5:         3
  | K-points in task   6:         3
  | K-points in task   7:         3
  | K-points in task   8:         3
  | K-points in task   9:         3
  | K-points in task  10:         3
  | K-points in task  11:         3
  | K-points in task  12:         3
  | K-points in task  13:         3
  | K-points in task  14:         3
  | K-points in task  15:         3
  | K-points in task  16:         3
  | K-points in task  17:         3
  | K-points in task  18:         3
  | K-points in task  19:         3
  | Number of basis functions in the Hamiltonian integrals :     13359
  | Number of basis functions in a single unit cell        :      1692
  | Number of centers in hartree potential         :      2081
  | Number of centers in hartree multipole         :      1362
  | Number of centers in electron density summation:      1107
  | Number of centers in basis integrals           :      1161
  | Number of centers in integrals                 :       457
  | Number of centers in hamiltonian               :      1333
  | Consuming         78 KiB for k_phase.
  | Number of super-cells (origin) [n_cells]                     :         343
  | Number of super-cells (after PM_index) [n_cells]             :          80
  | Number of super-cells in hamiltonian [n_cells_in_hamiltonian]:          80
  | Size of matrix packed + index [n_hamiltonian_matrix_size] :     7381527
  Partitioning the integration grid into batches with parallel hashing+maxmin method.
  | Number of batches:    10328
  | Maximal batch size:     121
  | Minimal batch size:      49
  | Average batch size:      98.339
  | Standard deviation of batch sizes:      10.363

  Integration load balanced across    20 MPI tasks.
  Work distribution over tasks is as follows:
  Task     0 has      50785 integration points.
  Task     1 has      50811 integration points.
  Task     2 has      50850 integration points.
  Task     3 has      50775 integration points.
  Task     4 has      50787 integration points.
  Task     5 has      50754 integration points.
  Task     6 has      50759 integration points.
  Task     7 has      50754 integration points.
  Task     8 has      50774 integration points.
  Task     9 has      50768 integration points.
  Task    10 has      50822 integration points.
  Task    11 has      50820 integration points.
  Task    12 has      50758 integration points.
  Task    13 has      50802 integration points.
  Task    14 has      50737 integration points.
  Task    15 has      50810 integration points.
  Task    16 has      50753 integration points.
  Task    17 has      50769 integration points.
  Task    18 has      50759 integration points.
  Task    19 has      50801 integration points.
  Initializing partition tables, free-atom densities, potentials, etc. across the integration grid (initialize_grid_storage).
  | initialize_grid_storage: Actual outermost partition radius vs. multipole_radius_free
  | (-- VB: in principle, multipole_radius_free should be larger, hence this output)
  | Species        1: Confinement radius =              7.000000000000000 AA, multipole_radius_free =              7.042572113910259 AA.
  | Species        1: outer_partition_radius set to              7.042572113910259 AA .
  | Species        2: Confinement radius =              6.000000000000000 AA, multipole_radius_free =              6.033387558927091 AA.
  | Species        2: outer_partition_radius set to              6.033387558927091 AA .
  | Species        3: Confinement radius =              6.000000000000000 AA, multipole_radius_free =              6.012827091137924 AA.
  | Species        3: outer_partition_radius set to              6.012827091137924 AA .
  | Species        4: Confinement radius =              6.000000000000000 AA, multipole_radius_free =              6.015836048499353 AA.
  | Species        4: outer_partition_radius set to              6.015836048499353 AA .
  | Species        5: Confinement radius =              6.000000000000000 AA, multipole_radius_free =              6.034976375468270 AA.
  | Species        5: outer_partition_radius set to              6.034976375468270 AA .
  | Original list of interatomic distances with        1161 x       1161 entries is created.
  | Net number of integration points:  1015648
  | of which are non-zero points    :   829906
  | Numerical average free-atom electrostatic potential    :     -8.84772912 eV
  Renormalizing the initial density to the exact electron count on the 3D integration grid.
  | Initial density: Formal number of electrons (from input files) :     512.0000000000
  | Integrated number of electrons on 3D grid     :     511.9997952520
  | Charge integration error                      :      -0.0002047480
  | Normalization factor for density and gradient :       1.0000003999
  Obtaining max. number of non-zero basis functions in each batch (get_n_compute_maxes).
  | Maximal number of non-zero basis functions:     1586 in task     0
  | Maximal number of non-zero basis functions:     1604 in task     1
  | Maximal number of non-zero basis functions:     1621 in task     2
  | Maximal number of non-zero basis functions:     1588 in task     3
  | Maximal number of non-zero basis functions:     1576 in task     4
  | Maximal number of non-zero basis functions:     1630 in task     5
  | Maximal number of non-zero basis functions:     1625 in task     6
  | Maximal number of non-zero basis functions:     1562 in task     7
  | Maximal number of non-zero basis functions:     1589 in task     8
  | Maximal number of non-zero basis functions:     1526 in task     9
  | Maximal number of non-zero basis functions:     1600 in task    10
  | Maximal number of non-zero basis functions:     1593 in task    11
  | Maximal number of non-zero basis functions:     1592 in task    12
  | Maximal number of non-zero basis functions:     1542 in task    13
  | Maximal number of non-zero basis functions:     1613 in task    14
  | Maximal number of non-zero basis functions:     1569 in task    15
  | Maximal number of non-zero basis functions:     1574 in task    16
  | Maximal number of non-zero basis functions:     1559 in task    17
  | Maximal number of non-zero basis functions:     1539 in task    18
  | Maximal number of non-zero basis functions:     1550 in task    19
  Allocating       30.050 MB for KS_eigenvector_complex
  Integrating Hamiltonian matrix: batch-based integration.
  Time summed over all CPUs for integration: real work      262.884 s, elapsed      266.938 s
  Integrating overlap matrix.
  Time summed over all CPUs for integration: real work      191.474 s, elapsed      193.448 s
  Decreasing sparse matrix size:
   Tolerance:  9.999999824516700E-014
   Hamiltonian matrix
  | Array has  6610439 nonzero elements out of  7381527 elements
  | Sparsity factor is 0.104
   Overlap matrix
  | Array has  6247372 nonzero elements out of  7381527 elements
  | Sparsity factor is 0.154
  New size of hamiltonian matrix:     6610541

  Updating Kohn-Sham eigenvalues and eigenvectors using ELSI and the ELPA eigensolver.
  Overlap matrix is nonsingular
  | Lowest eigenvalue of overlap  :  0.11E-03
  | Highest eigenvalue of overlap :  0.10E+02
  Finished singularity check of overlap matrix
  | Time :     3.398 s
  Finished Cholesky decomposition
  | Time :     0.442 s
  Finished transformation to standard eigenproblem
  | Time :     0.757 s
  Starting LAPACK eigensolver
  Finished solving standard eigenproblem
  | Time :     3.529 s
  Finished back-transformation of eigenvectors
  | Time :     0.130 s

  Obtaining occupation numbers and chemical potential using ELSI.
  | Chemical potential (Fermi level):    -5.67822685eV
  Writing Kohn-Sham eigenvalues.
  K-point:       1 at    0.000000    0.000000    0.000000 (in units of recip. lattice)

  State    Occupation    Eigenvalue [Ha]    Eigenvalue [eV]
      1       2.00000        -100.750484        -2741.56016
      2       2.00000        -100.749321        -2741.52850
      3       2.00000        -100.748020        -2741.49311
      4       2.00000        -100.747963        -2741.49156
      5       2.00000        -100.746977        -2741.46473
      6       2.00000        -100.746296        -2741.44619
      7       2.00000        -100.746012        -2741.43847
      8       2.00000        -100.744635        -2741.40099
      9       2.00000         -88.142106        -2398.46873
     10       2.00000         -88.141124        -2398.44201
     11       2.00000         -88.141062        -2398.44032
     12       2.00000         -88.140802        -2398.43326
     13       2.00000         -88.140588        -2398.42743
     14       2.00000         -88.138759        -2398.37767
     15       2.00000         -88.138181        -2398.36194
     16       2.00000         -88.137610        -2398.34641
     17       2.00000         -88.136857        -2398.32591
     18       2.00000         -88.136809        -2398.32459
     19       2.00000         -88.136056        -2398.30411
     20       2.00000         -88.135886        -2398.29948
     21       2.00000         -88.135847        -2398.29842
     22       2.00000         -88.135522        -2398.28958
     23       2.00000         -88.135422        -2398.28685
     24       2.00000         -88.134974        -2398.27466
     25       2.00000         -76.383301        -2078.49536
     26       2.00000         -76.380195        -2078.41087
     27       2.00000         -76.379867        -2078.40192
     28       2.00000         -76.379578        -2078.39408
     29       2.00000          -9.264248         -252.09300
[...]
    304       0.00000           0.000419            0.01140
    305       0.00000           0.002127            0.05787
    306       0.00000           0.004033            0.10974
    307       0.00000           0.004719            0.12841
    308       0.00000           0.008568            0.23315
    309       0.00000           0.010641            0.28955
    310       0.00000           0.012954            0.35249
    311       0.00000           0.013562            0.36905
    312       0.00000           0.015426            0.41977
    313       0.00000           0.016165            0.43987
    314       0.00000           0.017031            0.46345
    315       0.00000           0.020382            0.55462
    316       0.00000           0.022072            0.60061
    317       0.00000           0.024800            0.67483
    318       0.00000           0.026122            0.71082
    319       0.00000           0.026384            0.71793
    320       0.00000           0.028335            0.77104
    321       0.00000           0.032095            0.87335
    322       0.00000           0.034620            0.94206
    323       0.00000           0.035850            0.97552
    324       0.00000           0.036900            1.00409
    325       0.00000           0.039339            1.07047
    326       0.00000           0.040453            1.10079
    327       0.00000           0.042229            1.14912
    328       0.00000           0.044793            1.21888
    329       0.00000           0.046488            1.26501
    330       0.00000           0.047117            1.28211
    331       0.00000           0.047480            1.29200
    332       0.00000           0.050706            1.37979
    333       0.00000           0.054725            1.48913
    334       0.00000           0.058567            1.59369
    335       0.00000           0.058767            1.59914
    336       0.00000           0.061981            1.68658
    337       0.00000           0.063229            1.72056
    338       0.00000           0.065146            1.77271
    339       0.00000           0.067852            1.84634
    340       0.00000           0.069535            1.89213
    341       0.00000           0.070468            1.91752
    342       0.00000           0.072400            1.97011
    343       0.00000           0.072850            1.98235
    344       0.00000           0.075723            2.06054
    345       0.00000           0.079945            2.17540
    346       0.00000           0.081043            2.20528
    347       0.00000           0.081584            2.22000
    348       0.00000           0.084150            2.28983
    349       0.00000           0.085351            2.32251
    350       0.00000           0.087430            2.37910
    351       0.00000           0.091407            2.48731
    352       0.00000           0.093695            2.54958
    353       0.00000           0.098259            2.67377
    354       0.00000           0.099704            2.71307
    355       0.00000           0.102024            2.77622
    356       0.00000           0.106585            2.90032
    357       0.00000           0.111883            3.04448
    358       0.00000           0.114132            3.10569
    359       0.00000           0.115218            3.13525
    360       0.00000           0.118875            3.23474
    361       0.00000           0.122148            3.32382
    362       0.00000           0.123784            3.36834
    363       0.00000           0.129453            3.52260
    364       0.00000           0.129797            3.53196
    365       0.00000           0.131685            3.58333
    366       0.00000           0.134959            3.67243
    367       0.00000           0.138472            3.76802
    368       0.00000           0.141678            3.85526
    369       0.00000           0.143859            3.91460
    370       0.00000           0.148727            4.04707

  What follows are estimated values for band gap, HOMO, LUMO, etc.
  | They are estimated on a discrete k-point grid and not necessarily exact.
  | For converged numbers, create a DOS and/or band structure plot on a denser k-grid.

  Highest occupied state (VBM) at     -7.01704406 eV (relative to internal zero)
  | Occupation number:      2.00000000
  | K-point:      47 at    0.400000    0.600000    0.600000 (in units of recip. lattice)

  Lowest unoccupied state (CBM) at    -5.37868937 eV (relative to internal zero)
  | Occupation number:      0.00000001
  | K-point:       1 at    0.000000    0.000000    0.000000 (in units of recip. lattice)

  ESTIMATED overall HOMO-LUMO gap:      1.63835470 eV between HOMO at k-point 47 and LUMO at k-point 1
  | This appears to be an indirect band gap.
  | Smallest direct gap :      1.66903958 eV for k_point 1 at    0.000000    0.000000    0.000000 (in units of recip. lattice)
  The gap value is above 0.2 eV. Unless you are using a very sparse k-point grid,
  this system is most likely an insulator or a semiconductor.

  Self-consistency cycle converged.

  End self-consistency iteration #    20       :  max(cpu_time)    wall_clock(cpu1)
  | Time for this iteration                    :      328.172 s         328.156 s
  | Charge density & force component update    :      275.785 s         275.770 s
  | Density mixing                             :        0.021 s           0.021 s
  | Hartree multipole update                   :        0.014 s           0.015 s
  | Hartree multipole summation                :       20.484 s          20.482 s
  | Integration                                :       13.396 s          13.395 s
  | Solution of K.-S. eqns.                    :       18.466 s          18.465 s
  | Total energy evaluation                    :        0.002 s           0.003 s

  Partial memory accounting:
  | Current value for overall tracked memory usage on task 0  :         162.263 MB
  | Peak value for overall tracked memory usage on task 0     :         345.527 MB after allocating eigenvalue_tmp
  | Largest tracked array allocation on task 0 so far         :          59.052 MB  when allocating overlap_matrix
  Note:  These values currently only include a subset of arrays which are explicitly tracked.
  The "true" memory usage will be greater.
------------------------------------------------------------
  |------------------------------------------
  | Final ELSI Output
  |------------------------------------------
  | Number of basis functions :         1692
  | Number of electrons       :        512.0
  | Number of states          :          370
  | Solver                    :         ELPA
  | Parallel mode             :  SINGLE_PROC
  | Matrix format             :  BLACS_DENSE
  |------------------------------------------
  | ELSI Project (c)  elsi-interchange.org
  |------------------------------------------
  Removing unitary transformations (pure translations, rotations) from forces on atoms.
  Atomic forces before filtering:
  | Net force on center of mass :   0.105542E-02  0.341697E-02  0.112173E-03 eV/A
  Atomic forces after filtering:
  | Net force on center of mass :  -0.758226E-15  0.133805E-15 -0.825128E-15 eV/A

  Energy and forces in a compact form:
  | Total energy uncorrected      :         -0.314746892184603E+06 eV
  | Total energy corrected        :         -0.314746892184603E+06 eV  <-- do not rely on this value for anything but (periodic) metals
  | Electronic free energy        :         -0.314746892184603E+06 eV
  Total atomic forces (unitary forces cleaned) [eV/Ang]:
  |   1         -0.441158162807783E-01         -0.418635788839425E-01          0.493606563972046E-01
  |   2         -0.112267905521162E-02          0.652637686389618E-01         -0.693179844162388E-01
  |   3          0.812003914822512E-01         -0.345217560032905E-01         -0.690253908080897E-01
  |   4          0.230756684242662E-01          0.251097664977644E-02          0.723696616630272E-01
  |   5         -0.493805680960771E-01          0.894071350369458E-01         -0.941498920565782E-01
  |   6          0.644415007875478E-01          0.170361807915849E-01          0.924574966703410E-01
  |   7         -0.798056585949922E-01         -0.394136059624602E-01          0.619235891770288E-01
  |   8         -0.795362540434008E-02         -0.111601451415454E+00          0.568706335604975E-01
  |   9          0.100977047048544E-01         -0.760617068284847E-01         -0.631826695158844E-01
  |  10          0.380236715597482E-01          0.143875816033069E+00          0.582416798644460E-01
  |  11          0.116283154095803E-02         -0.924188501284115E-01          0.210318157274784E-01
  |  12          0.267560375339938E-01          0.485693237481993E-01          0.508832145938655E-01
  |  13         -0.561964293959746E-01         -0.460588407385153E-01          0.155261605837478E-01
  |  14         -0.948399903357100E-01          0.519525830112651E-01         -0.815269956448852E-01
  |  15          0.140045605351380E+00          0.609299961227842E-01         -0.140494523145532E-01
  |  16          0.713856158681454E-01          0.101249386748128E-02         -0.785338918274831E-01
  |  17         -0.621555031208288E-01          0.737069302403044E-01         -0.252279770421909E-01
  |  18          0.327149571388386E-01         -0.628532712691083E-01         -0.680618558331760E-01
  |  19          0.797826353461318E-01          0.604502287787321E-01          0.446445217108023E-01
  |  20         -0.749491424052797E-01         -0.458434385934985E-03         -0.271136677991824E-01
  |  21          0.110599508096095E-01         -0.261011188163989E-01          0.219285456076762E-01
  |  22         -0.557706781262518E-01          0.596068887628919E-01          0.105513183874378E+00
  |  23         -0.143971566873229E-01          0.342289816164391E-03         -0.105727360901358E+00
  |  24          0.559264708952507E-01         -0.790893606190957E-01         -0.929058648703683E-01
  |  25         -0.563836831349558E+00          0.726265608021544E+00         -0.776560511143165E+00
  |  26          0.759694469076167E+00         -0.616140373042357E+00         -0.574143017671861E+00
  |  27          0.648132257392937E+00          0.644057798232742E+00          0.665643475122951E+00
  |  28         -0.784115185651149E+00         -0.772641110808396E+00          0.539607991407222E+00
  |  29         -0.619488887483092E+00         -0.599661288114347E+00          0.754444833994995E+00
  |  30         -0.525269813611066E+00          0.801262551552281E+00         -0.836715201940033E+00
  |  31          0.629894564292665E+00          0.645534657093255E+00          0.624689922946006E+00
  |  32          0.627167745191360E+00         -0.903894005034604E+00         -0.662910817367821E+00
  |  33          0.649808494209619E+00         -0.534744577310909E+00         -0.676552597120878E+00
  |  34         -0.776234801082826E+00         -0.730958047744401E+00          0.751834218755862E+00
  |  35          0.780261669581357E+00          0.738232124159416E+00          0.717601465944622E+00
  |  36         -0.812757303264945E+00          0.439404295944759E+00         -0.675504694213159E+00
  |  37         -0.518183755030271E+00         -0.931219951943061E+00          0.834103496309409E+00
  |  38         -0.944891852086522E+00          0.494512952525790E+00         -0.829233638933844E+00
  |  39          0.450926706582732E+00          0.971764002429052E+00          0.885891478512735E+00
  |  40          0.863004351566932E+00         -0.413295408809968E+00         -0.737543171883130E+00
  |  41          0.251981836088805E-01         -0.809954446960155E-01          0.181745534868468E-01
  |  42          0.263172546441158E-01          0.600360464806533E-01          0.823670473393843E-02
  |  43         -0.135764404646811E+00         -0.759996911696494E-01         -0.388246396359750E-01
  |  44          0.818226633933154E-01          0.480968186188365E-01         -0.716082337628711E-01
  |  45         -0.232388309008653E-01          0.500615204912267E-01          0.841386291804867E-01
  |  46          0.251234552560409E-01         -0.274291871159549E-01          0.535844774168848E-01
  |  47          0.147925798777031E+00         -0.271902459634567E-01         -0.659946246581591E-01
  |  48         -0.106481742406255E+00          0.307183197565000E-01          0.145711744118433E+00

  ------------------------------------ 
  Start decomposition of the XC Energy 
  ------------------------------------ 
  X and C from original XC functional choice 
  Hartree-Fock Energy :          0.000000000 Ha              0.000000000 eV
  X Energy            :       -744.252343420 Ha         -20252.136681819 eV
  C Energy            :        -19.133101221 Ha           -520.638174015 eV
  Total XC Energy     :       -763.385444641 Ha         -20772.774855833 eV
  ------------------------------------ 
  LDA X and C from self-consistent density 
  X Energy LDA        :       -688.660425099 Ha         -18739.403617289 eV
  C Energy LDA        :        -38.723390277 Ha          -1053.717061960 eV
  ------------------------------------ 
  End decomposition of the XC Energy 
  ------------------------------------ 

------------------------------------------------------------

------------------------------------------------------------------------------
  Final output of selected total energy values:

  The following output summarizes some interesting total energy values
  at the end of a run (AFTER all relaxation, molecular dynamics, etc.).

  | Total energy of the DFT / Hartree-Fock s.c.f. calculation      :        -314746.892184603 eV
  | Final zero-broadening corrected energy (caution - metals only) :        -314746.892184603 eV
  | For reference only, the value of 1 Hartree used in FHI-aims is :             27.211384500 eV

  Before relying on these values, please be sure to understand exactly which
  total energy value is referred to by a given number. Different objects may
  all carry the same name 'total energy'. Definitions:

  Total energy of the DFT / Hartree-Fock s.c.f. calculation:
  | Note that this energy does not include ANY quantities calculated after the
  | s.c.f. cycle, in particular not ANY RPA, MP2, etc. many-body perturbation terms.

  Final zero-broadening corrected energy:
  | For metallic systems only, a broadening of the occupation numbers at the Fermi
  | level can be extrapolated back to zero broadening by an electron-gas inspired
  | formula. For all systems that are not real metals, this value can be
  | meaningless and should be avoided.

------------------------------------------------------------------------------
  Methods described in the following list of references were used in this FHI-aims run.
  If you publish the results, please make sure to cite these reference if they apply.
  FHI-aims is an academic code, and for our developers (often, Ph.D. students
  and postdocs), scientific credit in the community is essential.
  Thank you for helping us!

  For any use of FHI-aims, please cite:

    Volker Blum, Ralf Gehrke, Felix Hanke, Paula Havu, Ville Havu,
    Xinguo Ren, Karsten Reuter, and Matthias Scheffler
    'Ab initio molecular simulations with numeric atom-centered orbitals'
    Computer Physics Communications 180, 2175-2196 (2009)
    http://dx.doi.org/10.1016/j.cpc.2009.06.022


  The provided symmetry information was generated with SPGlib:

    Atsushi Togo, Yusuke Seto, Dimitar Pashov
    SPGlib 1.7.3 obtained from http://spglib.sourceforge.net
    Copyright (C) 2008 Atsushi Togo


  The scalable eigensolver library ELPA was used in your run.
  ELPA is essential especially for large systems on hundreds or thousands of CPUs.
  For ELPA, please cite:

    Andreas Marek, Volker Blum, Rainer Johanni, Ville Havu, Bruno Lang,
    Thomas Auckenthaler, Alexander Heinecke, Hans-Joachim Bungartz, and Hermann Lederer,
    'The ELPA Library - Scalable Parallel Eigenvalue Solutions
    for Electronic Structure Theory and Computational Science'
    The Journal of Physics: Condensed Matter 26, 213201 (2014).
    http://dx.doi.org/10.1088/0953-8984/26/21/213201


  The ELSI infrastructure was used in your run to solve the Kohn-Sham electronic structure.
  Please check out http://elsi-interchange.org to learn more.
  If scalability is important for your project, please acknowledge ELSI by citing:

    V. W-z. Yu, F. Corsetti, A. Garcia, W. P. Huhn, M. Jacquelin, W. Jia,
    B. Lange, L. Lin, J. Lu, W. Mi, A. Seifitokaldani, A. Vazquez-Mayagoitia,
    C. Yang, H. Yang, and V. Blum
    'ELSI: A unified software interface for Kohn-Sham electronic structure solvers'
    Computer Physics Communications 222, 267-285 (2018).
    http://dx.doi.org/10.1016/j.cpc.2017.09.007


  For the real-space grid partitioning and parallelization used in this calculation, please cite:

    Ville Havu, Volker Blum, Paula Havu, and Matthias Scheffler,
    'Efficient O(N) integration for all-electron electronic structure calculation'
    'using numerically tabulated basis functions'
    Journal of Computational Physics 228, 8367-8379 (2009).
    http://dx.doi.org/10.1016/j.jcp.2009.08.008

  Of course, there are many other important community references, e.g., those cited in the
  above references. Our list is limited to references that describe implementations in the
  FHI-aims code. The reason is purely practical (length of this list) - please credit others as well.

------------------------------------------------------------
          Leaving FHI-aims.
          Date     :  20220324, Time     :  061102.474

          Computational steps:
          | Number of self-consistency cycles          :           20
          | Number of SCF (re)initializations          :            1

          Detailed time accounting                     :  max(cpu_time)    wall_clock(cpu1)
          | Total time                                 :     1789.996 s        1791.045 s
          | Preparation time                           :        0.591 s           0.595 s
          | Boundary condition initalization           :        0.390 s           0.390 s
          | Grid partitioning                          :        1.321 s           1.321 s
          | Preloading free-atom quantities on grid    :        0.049 s           0.048 s
          | Free-atom superposition energy             :        0.597 s           0.597 s
          | Total time for integrations                :      292.112 s         292.094 s
          | Total time for solution of K.-S. equations :      399.145 s         399.127 s
          | Total time for density & force components  :      880.122 s         880.012 s
          | Total time for mixing & preconditioning    :       61.858 s          61.855 s
          | Total time for Hartree multipole update    :        0.279 s           0.282 s
          | Total time for Hartree multipole sum       :      148.620 s         148.616 s
          | Total time for total energy evaluation     :        0.019 s           0.027 s

          Partial memory accounting:
          | Residual value for overall tracked memory usage across tasks :           0.000 MB (should be 0.000 MB)
          | Peak values for overall tracked memory usage (after allocating eigenvalue_tmp):
          |   Minimum:      345.527 MB (on task  1)
          |   Maximum:      355.544 MB (on task  2)
          |   Average:      347.030 MB
          | Largest tracked array allocation (overlap_matrix):
          |   Minimum:       59.052 MB (on task  1)
          |   Maximum:       59.052 MB (on task  1)
          |   Average:       59.052 MB
          Note:  These values currently only include a subset of arrays which are explicitly tracked.
          The "true" memory usage will be greater.

          Have a nice day.
------------------------------------------------------------
