  MPI-parallelism will be employed.
------------------------------------------------------------
          Invoking FHI-aims ...
          Version 171221_1
          Compiled on 2020/09/23 at 19:46:43 on host login.service.

          When using FHI-aims, please cite the following reference:

          Volker Blum, Ralf Gehrke, Felix Hanke, Paula Havu,
          Ville Havu, Xinguo Ren, Karsten Reuter, and Matthias Scheffler,
          'Ab Initio Molecular Simulations with Numeric Atom-Centered Orbitals',
          Computer Physics Communications 180, 2175-2196 (2009)

          For any questions about FHI-aims, please visit the aimsclub website
          with its forums and wiki. Contributions to both the forums and the
          wiki are warmly encouraged - they are for you, and everyone is welcome there.

------------------------------------------------------------



  Date     :  20220704, Time     :  064626.235
  Time zero on CPU 1             :   0.814630000000000E-01  s.
  Internal wall clock time zero  :           426149186.235  s.

  FHI-aims created a unique identifier for this run for later identification
  aims_uuid : 9BE38F81-DB61-4C62-A549-F2C2CD6F20EA

  Using       20 parallel tasks.
  Task        0 on host node042 reporting.
  Task        1 on host node042 reporting.
  Task        2 on host node042 reporting.
  Task        3 on host node042 reporting.
  Task        4 on host node042 reporting.
  Task        5 on host node042 reporting.
  Task        6 on host node042 reporting.
  Task        7 on host node042 reporting.
  Task        8 on host node042 reporting.
  Task        9 on host node042 reporting.
  Task       10 on host node042 reporting.
  Task       11 on host node042 reporting.
  Task       12 on host node042 reporting.
  Task       13 on host node042 reporting.
  Task       14 on host node042 reporting.
  Task       15 on host node042 reporting.
  Task       16 on host node042 reporting.
  Task       17 on host node042 reporting.
  Task       18 on host node042 reporting.
  Task       19 on host node042 reporting.

  Performing system and environment tests:
  *** Environment variable OMP_NUM_THREADS is not set
  *** For performance reasons you might want to set it to 1
  | Maximum stacksize for task 0: unlimited
  | Maximum stacksize for task 1: unlimited
  | Maximum stacksize for task 2: unlimited
  | Maximum stacksize for task 3: unlimited
  | Maximum stacksize for task 4: unlimited
  | Maximum stacksize for task 5: unlimited
  | Maximum stacksize for task 6: unlimited
  | Maximum stacksize for task 7: unlimited
  | Maximum stacksize for task 8: unlimited
  | Maximum stacksize for task 9: unlimited
  | Maximum stacksize for task 10: unlimited
  | Maximum stacksize for task 11: unlimited
  | Maximum stacksize for task 12: unlimited
  | Maximum stacksize for task 13: unlimited
  | Maximum stacksize for task 14: unlimited
  | Maximum stacksize for task 15: unlimited
  | Maximum stacksize for task 16: unlimited
  | Maximum stacksize for task 17: unlimited
  | Maximum stacksize for task 18: unlimited
  | Maximum stacksize for task 19: unlimited
  | Current stacksize for task 0: unlimited
  | Current stacksize for task 1: unlimited
  | Current stacksize for task 2: unlimited
  | Current stacksize for task 3: unlimited
  | Current stacksize for task 4: unlimited
  | Current stacksize for task 5: unlimited
  | Current stacksize for task 6: unlimited
  | Current stacksize for task 7: unlimited
  | Current stacksize for task 8: unlimited
  | Current stacksize for task 9: unlimited
  | Current stacksize for task 10: unlimited
  | Current stacksize for task 11: unlimited
  | Current stacksize for task 12: unlimited
  | Current stacksize for task 13: unlimited
  | Current stacksize for task 14: unlimited
  | Current stacksize for task 15: unlimited
  | Current stacksize for task 16: unlimited
  | Current stacksize for task 17: unlimited
  | Current stacksize for task 18: unlimited
  | Current stacksize for task 19: unlimited
  | Checking for scalapack...
  | Testing pdtran()...
  | All pdtran() tests passed.

  Obtaining array dimensions for all initial allocations:
  
  -----------------------------------------------------------------------
  Parsing control.in (first pass over file, find array dimensions only).
  The contents of control.in will be repeated verbatim below
  unless switched off by setting 'verbatim_writeout .false.' .
  in the first line of control.in .
  -----------------------------------------------------------------------
  
  #===============================================================================
  # FHI-aims file: ./control.in
  # Created using the Atomic Simulation Environment (ASE)
  # Wed Mar 24 12:41:28 2021
  #===============================================================================
  xc                                 pbe
  sc_accuracy_etot                   1e-06
  sc_accuracy_eev                    0.001
  sc_accuracy_rho                    1e-06
  sc_accuracy_forces                 0.0001
  friction_temperature               300  # default 300
  
    k_grid                           1  1  2
  
  
  
  ################################################################################
  #
  #  FHI-aims code project
  # Volker Blum, Fritz Haber Institute Berlin, 2009
  #
  #  Suggested "tight" defaults for Li atom (to be pasted into control.in file)
  #
  #  2016/03/22: Increased cutoff radius to 5.0 AA (Xinguo Ren, Aug 15, 2015)
  #
  ################################################################################
    species        Li
  #     global species definitions
      nucleus             3
      mass                6.941
  #
      l_hartree           6
  #
      cut_pot             5.0  2.0  1.0
      basis_dep_cutoff    1e-4
  #
      radial_base         29 7.0
      radial_multiplier   2
      angular_grids       specified
        division   0.4484  110
        division   0.5659  194
        division   0.6315  302
        division   0.6662  434
  #      division   0.8186  590
  #      division   0.9037  770
  #      division   6.2760  974
  #      outer_grid   974
        outer_grid  434
  ################################################################################
  #
  #  Definition of "minimal" basis
  #
  ################################################################################
  #     valence basis states
      valence      2  s   1.
  #     ion occupancy
      ion_occ      1  s   2.
  ################################################################################
  #
  #  Suggested additional basis functions. For production calculations,
  #  uncomment them one after another (the most important basis functions are
  #  listed first).
  #
  #  Constructed for dimers: 1.80 A, 2.25 A, 2.75 A, 3.50 A, 4.50 A
  #
  ################################################################################
  #  "First tier" - improvements: -189.23 meV to -6.35 meV
       hydro 2 p 1.6
       hydro 2 s 2
       hydro 3 d 2.6
  #  "Second tier" - improvements: -4.69 meV to -0.41 meV
       hydro 3 p 4.6
       hydro 2 p 1.8
       hydro 3 s 6.2
       hydro 4 d 4.7
       hydro 4 f 4.1
  #  "Third tier" - improvements: -0.20 meV to -0.15 meV
  #     hydro 4 d 0.95
  #     hydro 3 p 6.2
  #     hydro 3 s 1.7
  #  Further functions, listed for completeness
  #     VB: The following functions are only listed for completeness; test very
  #         carefully before any kind of production use. From the point of view
  #         of the basis construction, their main role is to fill up space,
  #         and they are solely determined by the location of the cutoff potential.
  #     hydro 3 p 0.1  # -0.15 meV
  #     hydro 4 d 5    # -0.12 meV
  #     hydro 4 f 0.1  # -0.14 meV
  #     hydro 5 g 0.1  # -0.06 meV
  
  
  ################################################################################
  #
  # For methods that use the localized form of the "resolution of identity" for
  # the two-electron Coulomb operator (RI_method LVL), particularly Hartree-Fock and
  # hybrid density functional calculations, the highest accuracy can be obtained by
  # uncommenting the line beginning with "for_aux"  below, thus adding an extra g radial
  # function to the construction of the product basis set for the expansion.
  # See Ref. New J. Phys. 17, 093020 (2015) for more information, particularly Figs. 1 and 6.
  #
  ################################################################################
  #
  # for_aux hydro 5 g 6.0
  ################################################################################
  #
  #  FHI-aims code project
  # Volker Blum, Fritz Haber Institute Berlin, 2010
  #
  #  Suggested "tight" defaults for P atom (to be pasted into control.in file)
  #
  #  Revised Jan 04, 2011, following tests (SiC) done by Lydia Nemec:
  #     d function of tier 2 now enabled by default.
  #
  ################################################################################
    species        P
  #     global species definitions
      nucleus             15
      mass                30.973762
  #
      l_hartree           6
  #
      cut_pot             4.0          2.0  1.0
      basis_dep_cutoff    1e-4
  #
      radial_base         43 7.0
      radial_multiplier   2
      angular_grids       specified
        division   0.2995   50
        division   0.5998  110
        division   0.9240  194
        division   1.0921  302
        division   1.2863  434
  #      division   1.3165  590
  #      division   1.4113  770
  #      division   1.5128  974
  #      division   2.4980 1202
        outer_grid  434
  ################################################################################
  #
  #  Definition of "minimal" basis
  #
  ################################################################################
  #     valence basis states
      valence      3  s   2.
      valence      3  p   3.
  #     ion occupancy
      ion_occ      3  s   1.
      ion_occ      3  p   2.
  ################################################################################
  #
  #  Suggested additional basis functions. For production calculations,
  #  uncomment them one after another (the most important basis functions are
  #  listed first).
  #
  #  Constructed for dimers: 1.625 A, 1.875 A, 2.5 A, 3.25 A, 4.0 A
  #
  ################################################################################
  #  "First tier" - improvements: -726.20 meV to -35.91 meV
       ionic 3 d auto
       ionic 3 p auto
       hydro 4 f 6.2
       hydro 5 g 8.6
       ionic 3 s auto
  #  "Second tier" - improvements: -16.02 meV to -1.71 meV
       hydro 4 d 6.2
  #     hydro 4 p 9.2
  #     hydro 5 f 9.8
  #     hydro 1 s 0.7
  #     hydro 5 g 13.2
  #  "Third tier" - improvements: -1.82 meV to -0.20 meV
  #     hydro 3 p 2.5
  #     hydro 4 d 6.4
  #     hydro 5 f 11.2
  #     hydro 2 s 1.5
  #  "Fourth tier" - improvements: -0.91 meV to -0.17 meV
  #     hydro 3 d 16.8
  #     hydro 5 g 18
  #     hydro 4 p 4.5
  #     hydro 3 s 2.1
  #  Further basis functions that fell out of the optimization - < -0.09 meV
  #     hydro 4 p 10.4
  #     hydro 4 d 17.6
  #     hydro 4 s 11.2
  ################################################################################
  #
  # For methods that use the localized form of the "resolution of identity" for
  # the two-electron Coulomb operator (RI_method LVL), particularly Hartree-Fock and
  # hybrid density functional calculations, the highest accuracy can be obtained by
  # uncommenting the line beginning with "for_aux"  below, thus adding an extra g radial
  # function to the construction of the product basis set for the expansion.
  # See Ref. New J. Phys. 17, 093020 (2015) for more information, particularly Figs. 1 and 6.
  #
  ################################################################################
  #
  # for_aux hydro 5 g 6.0
  ################################################################################
  #
  #  FHI-aims code project
  # Volker Blum, Fritz Haber Institute Berlin, 2009
  #
  #  Suggested "tight" defaults for S atom (to be pasted into control.in file)
  #
  #  Revised Jan 04, 2011, following tests (SiC) done by Lydia Nemec:
  #     d and g functions of tier 2 now enabled by default.
  #
  ################################################################################
    species        S
  #     global species definitions
      nucleus             16
      mass                32.065
  #
      l_hartree           6
  #
      cut_pot             4.0          2.0  1.0
      basis_dep_cutoff    1e-4
  #
      radial_base         44 7.0
      radial_multiplier   2
      angular_grids       specified
        division   0.4665  110
        division   0.5810  194
        division   0.7139  302
        division   0.8274  434
  #      division   0.9105  590
  #      division   1.0975  770
  #      division   1.2028  974
  #      outer_grid  974
        outer_grid  434
  ################################################################################
  #
  #  Definition of "minimal" basis
  #
  ################################################################################
  #     valence basis states
      valence      3  s   2.
      valence      3  p   4.
  #     ion occupancy
      ion_occ      3  s   1.
      ion_occ      3  p   3.
  ################################################################################
  #
  #  Suggested additional basis functions. For production calculations,
  #  uncomment them one after another (the most important basis functions are
  #  listed first).
  #
  #  Constructed for dimers: 1.6 A, 1.9 A, 2.5 A, 3.25 A, 4.0 A
  #
  ################################################################################
  #  "First tier" - improvements: -652.81 meV to -45.53 meV
       ionic 3 d auto
       hydro 2 p 1.8
       hydro 4 f 7
       ionic 3 s auto
  #  "Second tier" - improvements: -30.20 meV to -1.74 meV
       hydro 4 d 6.2
       hydro 5 g 10.8
  #     hydro 4 p 4.9
  #     hydro 5 f 10
  #     hydro 1 s 0.8
  #  "Third tier" - improvements: -1.04 meV to -0.20 meV
  #     hydro 3 d 3.9
  #     hydro 3 d 2.7
  #     hydro 5 g 12
  #     hydro 4 p 10.4
  #     hydro 5 f 12.4
  #     hydro 2 s 1.9
  #  "Fourth tier" - improvements: -0.35 meV to -0.06 meV
  #     hydro 4 d 10.4
  #     hydro 4 p 7.2
  #     hydro 4 d 10
  #     hydro 5 g 19.2
  #     hydro 4 s 12
  
  ################################################################################
  #
  # For methods that use the localized form of the "resolution of identity" for
  # the two-electron Coulomb operator (RI_method LVL), particularly Hartree-Fock and
  # hybrid density functional calculations, the highest accuracy can be obtained by
  # uncommenting the line beginning with "for_aux"  below, thus adding an extra g radial
  # function to the construction of the product basis set for the expansion.
  # See Ref. New J. Phys. 17, 093020 (2015) for more information, particularly Figs. 1 and 6.
  #
  ################################################################################
  #
  # for_aux hydro 5 g 6.0
  ################################################################################
  #
  #  FHI-aims code project
  # Volker Blum, Fritz Haber Institute Berlin, 2009
  #
  #  Suggested "tight" defaults for Cl atom (to be pasted into control.in file)
  #
  #  Revised Jan 04, 2011, following tests (SiC) done by Lydia Nemec:
  #     d function of tier 2 now enabled by default.
  #
  ################################################################################
    species        Cl
  #     global species definitions
      nucleus             17
      mass                35.453
  #
      l_hartree           6
  #
      cut_pot             4.0          2.0  1.0
      basis_dep_cutoff    1e-4
  #
      radial_base         45 7.0
      radial_multiplier   2
      angular_grids       specified
        division   0.4412  110
        division   0.5489  194
        division   0.6734  302
        division   0.7794  434
  #      division   0.9402  590
  #      division   1.0779  770
  #      division   1.1792  974
  #      outer_grid  974
        outer_grid  434
  ################################################################################
  #
  #  Definition of "minimal" basis
  #
  ################################################################################
  #     valence basis states
      valence      3  s   2.
      valence      3  p   5.
  #     ion occupancy
      ion_occ      3  s   1.
      ion_occ      3  p   4.
  ################################################################################
  #
  #  Suggested additional basis functions. For production calculations,
  #  uncomment them one after another (the most important basis functions are
  #  listed first).
  #
  #  Constructed for dimers: 1.65 A, 2.0 A, 2.5 A, 3.25 A, 4.0 A
  #
  ################################################################################
  #  "First tier" - improvements: -429.57 meV to -15.03 meV
       ionic 3 d auto
       hydro 2 p 1.9
       hydro 4 f 7.4
       ionic 3 s auto
       hydro 5 g 10.4
  #  "Second tier" - improvements: -7.84 meV to -0.48 meV
       hydro 3 d 3.3
  #     hydro 5 f 9.8
  #     hydro 1 s 0.75
  #     hydro 5 g 11.2
  #     hydro 4 p 10.4
  #  "Third tier" - improvements: -1.00 meV to -0.12 meV
  #     hydro 4 d 12.8
  #     hydro 4 f 4.6
  #     hydro 4 d 10.8
  #     hydro 2 s 1.8
  #     hydro 3 p 3
  #  Further functions that fell out - improvements: -0.10 meV and below
  #     hydro 5 f 14.4
  #     hydro 4 s 12.8
  #     hydro 3 d 11.6
  #     hydro 4 s 4.1
  ################################################################################
  #
  # For methods that use the localized form of the "resolution of identity" for
  # the two-electron Coulomb operator (RI_method LVL), particularly Hartree-Fock and
  # hybrid density functional calculations, the highest accuracy can be obtained by
  # uncommenting the line beginning with "for_aux"  below, thus adding an extra g radial
  # function to the construction of the product basis set for the expansion.
  # See Ref. New J. Phys. 17, 093020 (2015) for more information, particularly Figs. 1 and 6.
  #
  ################################################################################
  #
  # for_aux hydro 5 g 6.0
  
  -----------------------------------------------------------------------
  Completed first pass over input file control.in .
  -----------------------------------------------------------------------
  
  
  -----------------------------------------------------------------------
  Parsing geometry.in (first pass over file, find array dimensions only).
  The contents of geometry.in will be repeated verbatim below
  unless switched off by setting 'verbatim_writeout .false.' .
  in the first line of geometry.in .
  -----------------------------------------------------------------------
  
  #=======================================================
  # FHI-aims file: ./data/test_rep/geometry.in.8
  # Created using the Atomic Simulation Environment (ASE)
  # Mon Jul  4 10:21:46 2022
  #=======================================================
  lattice_vector 20.3944687462020013 0.0000000000000000 0.0000000000000000
  lattice_vector 0.0000000000000000 16.9303833579830005 0.0000000000000000
  lattice_vector 0.0000000000000000 0.0000000000000000 7.8271492433810002
  atom 2.8148794006600002 2.5056849119400000 4.8508950503500001 Li
  atom 1.8208052908100001 8.4957168372199998 4.4029515317499994 Li
  atom 9.3363975687699998 3.8292543521600000 2.9497883927799999 Li
  atom 7.1229989457100000 1.4534809866700000 6.5966165774200007 Li
  atom 8.3830404538100005 0.9657072115100001 3.1968496425100001 Li
  atom 6.9648007111400005 6.1887494513899997 3.6034542439800004 Li
  atom 13.0489064926500014 2.4991298590700000 2.6977303267099999 Li
  atom 12.4419743329300001 8.8153142002800013 4.5585724951700000 Li
  atom 20.0167255497800021 4.7936844481299996 4.4298201838499995 Li
  atom 14.5059222137499990 3.0283130723700000 6.5620986272300001 Li
  atom 18.5577879568300013 1.0805622303200002 4.7737834370299996 Li
  atom 16.5454887039800020 7.5337848414500002 5.5628093595800001 Li
  atom 3.5894070298200003 11.5048047319600002 4.7889341437500006 Li
  atom 1.4127170979400001 16.8646627906000006 4.4726951667600003 Li
  atom 9.4927073611700017 12.8581533303000004 4.2084103981399998 Li
  atom 6.8444017152700001 9.1135139807800005 4.9229121075400002 Li
  atom 8.6220794651099997 9.4809360092600006 2.3087467314299999 Li
  atom 6.8029270935800001 14.9938679113600006 4.7785780118399996 Li
  atom 12.9586745590800003 11.4741120586000012 2.7163518161900000 Li
  atom 11.8049668890599992 16.8294754547400025 3.5912821262799999 Li
  atom 0.1717867248400000 13.2809584031599996 4.5952546998999999 Li
  atom 16.8426482246499987 10.7583859614200001 6.5344545942199996 Li
  atom 19.0267440790100011 9.1429260695600014 3.3681433640300003 Li
  atom 17.1401797205499982 15.5523998900699993 5.4299258861500004 Li
  atom 9.4547458387600010 7.4305579592300006 4.6553163441800001 P
  atom 4.8589855674799995 0.6684959354000000 3.5098123821099998 P
  atom 19.8372913025700015 8.2418037123099985 6.5848286517799997 P
  atom 15.4171567886100007 1.1914154828300001 3.0284423693000000 P
  atom 9.5887614346300012 16.1973163794900010 5.4707229243999995 P
  atom 4.5907580556800003 8.8044711039399992 2.8437931661700002 P
  atom 19.8466988693700017 16.5532181855100013 6.7159136349999997 P
  atom 15.2999603047899999 9.2348638201199993 3.4175355998400003 P
  atom 1.2439313986100000 0.7602066955900000 6.9650584274400007 S
  atom 3.0157778909999999 0.4294807160700000 2.5969446557300002 S
  atom 5.6675215728700001 2.6963672442800002 2.3810087195300000 S
  atom 9.3141349767600001 6.3814063977600002 2.7262677724500004 S
  atom 8.0791853810600003 15.9709423985700010 6.8652419823400006 S
  atom 6.4291406920100007 7.9575834018400000 2.3240082404000000 S
  atom 11.2236536062200010 6.7024831446700004 5.6836315185900004 S
  atom 4.7258050925199999 1.2782187832999998 5.5721582441900006 S
  atom 0.3859625476000000 2.7331578348800001 2.3476885954800002 S
  atom 1.3131101146700002 4.7320528737300007 2.4599755070500002 S
  atom 7.4265665289800005 2.2733492467300001 1.3640760524600000 S
  atom 7.9418931213800006 3.1376358540600000 4.9255405624800002 S
  atom 11.5350223342999989 4.8100959201700002 4.5724267017500004 S
  atom 6.2437293135999994 3.9896022523500001 4.2727599612600002 S
  atom 3.2082124274100003 4.6631419442799995 3.4809530273800000 S
  atom 3.0817038011400002 5.9644290484200004 5.3308852875200001 S
  atom 0.4022770307200000 2.2822613732300003 4.3767546889100002 S
  atom 2.3306136448200001 4.8189303445000000 6.8562789223399996 S
  atom 10.2200646519799996 1.2460462213899999 5.2768745945399997 S
  atom 14.4888441782400008 1.0748759113800002 1.1771474778700000 S
  atom 16.4268347093900005 3.2748277649599999 3.0932722296600001 S
  atom 19.7245609512800009 7.2321812662999996 4.5928581123800001 S
  atom 18.0892633747799998 0.5568336137700001 7.2056189856400001 S
  atom 16.6644040538600002 7.8008373364600008 3.0113473810199998 S
  atom 19.9481350347900026 6.6433506788400001 0.1864531904500000 S
  atom 13.9208600048899989 1.3176540492800000 4.5758347358800000 S
  atom 10.6030009122900015 1.7464939683600000 0.3818965577100000 S
  atom 10.4271976767000005 3.7690100785800000 0.1153094342100000 S
  atom 17.7634945885299977 3.4597989285800002 4.6862872339300008 S
  atom 16.7895992200100004 4.1528524092900003 6.6710036295900004 S
  atom 0.1622681951100000 4.8774971930400008 6.9125415774500008 S
  atom 15.3425757719899991 5.4348272987400001 6.2588736281399999 S
  atom 12.5173880396600001 4.5082698320599999 7.8202240057300001 S
  atom 12.9580339351300005 5.9585332089399996 1.6495499985900000 S
  atom 10.7110037757600001 1.7307236713200000 2.5111424390399999 S
  atom 13.3635439823800013 5.0826809685100001 3.4399770729800001 S
  atom 1.1152419759999999 9.5291199232300006 6.8155719256599996 S
  atom 2.8735083365700005 7.9440383610900005 1.9514775653900001 S
  atom 4.8395279858000002 10.8638551289200009 2.1275207250600001 S
  atom 9.2220291889099997 15.0799163825099996 3.5911274707500005 S
  atom 7.7890052567800003 7.1857083306499998 5.8880552519100009 S
  atom 6.3000902348299999 16.2958346640900018 2.8745660116400003 S
  atom 11.5813101439300006 15.6619297954899999 6.1702736039100001 S
  atom 4.3850202411500003 9.1891825465900006 4.9577249086200004 S
  atom 1.3231648397400000 11.4465678686400008 2.0949636178000000 S
  atom 1.6934498428300000 13.5691567013500016 2.5056725560599999 S
  atom 6.8687442058500006 11.5351260450000002 2.3919095298599999 S
  atom 7.2283286934400008 11.6842148349400006 4.5839286427400001 S
  atom 11.4622404124999999 13.5160714448300006 5.7557890028899994 S
  atom 5.8072049270799999 12.8757737411500006 5.5922556144900000 S
  atom 3.5455647141699997 13.7785006138600004 3.6726473676800002 S
  atom 3.1243113661800002 15.0347931567999993 5.4850334014100000 S
  atom 0.9248028555000000 10.8168539145100002 4.0559180144000004 S
  atom 2.6396326081500003 13.8823682930700016 7.1030803123400004 S
  atom 10.0220182749000006 9.4878122171600001 4.6370771803999995 S
  atom 13.5128774179200004 9.1192892288900005 2.3317814042300000 S
  atom 16.0745924768900004 11.1589982577299995 2.6523194961600001 S
  atom 19.6512137726899994 15.5364041785599998 4.7190192908100004 S
  atom 18.0283919506800032 8.9247623659300004 7.3919187884899999 S
  atom 16.8375609176599994 16.7449770069000010 3.2187182111100001 S
  atom 19.8454808335999999 14.9718043040200008 0.3047547942300000 S
  atom 14.7771747593300002 9.4631884480000004 5.4849671538700004 S
  atom 10.7754442157800003 12.6701343431199991 0.8597381407200000 S
  atom 11.9403694901400002 14.4410274221900004 1.5162815173399999 S
  atom 18.1238996101700032 11.4001913049399999 2.8768562290000004 S
  atom 18.3807995064200007 12.0603022575400001 5.1452344341099998 S
  atom 0.5018861790500000 13.4131442740699995 7.0936815087800005 S
  atom 16.7418235094600014 13.0902632040600011 5.8937101156800002 S
  atom 13.9369971621799991 13.7781645732700007 1.7953856355000000 S
  atom 14.2905291524399995 14.4711469098199998 3.8632033633100002 S
  atom 10.5110136465400004 11.3950063982399996 2.4347698167300003 S
  atom 13.5046611429400016 13.0387138423400000 5.1050121667599999 S
  
  -----------------------------------------------------------------------
  Completed first pass over input file geometry.in .
  -----------------------------------------------------------------------
  

  Basic array size parameters:
  | Number of species                 :        4
  | Number of atoms                   :      104
  | Number of lattice vectors         :        3
  | Max. basis fn. angular momentum   :        4
  | Max. atomic/ionic basis occupied n:        3
  | Max. number of basis fn. types    :        3
  | Max. radial fns per species/type  :        8
  | Max. logarithmic grid size        :     1362
  | Max. radial integration grid size :       91
  | Max. angular integration grid size:      434
  | Max. angular grid division number :        8
  | Radial grid for Hartree potential :     1362
  | Number of spin channels           :        1

------------------------------------------------------------
          Reading file control.in.
------------------------------------------------------------
  XC: Using PBE gradient-corrected functionals.
  Convergence accuracy of total energy:  0.1000E-05
  Convergence accuracy of sum of eigenvalues:  0.1000E-02
  Convergence accuracy of self-consistent charge density:  0.1000E-05
  Convergence accuracy of forces:  0.1000E-03
  Friction is calculated at temperature of   0.3000E+03 K
  Found k-point grid:         1         1         2
 
  Reading configuration options for species Li                  .
  | Found nuclear charge :   3.0000
  | Found atomic mass :    6.94100000000000      amu
  | Found l_max for Hartree potential  :   6
  | Found cutoff potl. onset [A], width [A], scale factor :    5.00000    2.00000    1.00000
  | Threshold for basis-dependent cutoff potential is   0.100000E-03
  | Found data for basic radial integration grid :    29 points, outermost radius =    7.000 A
  | Found multiplier for basic radial grid :   2
  | Found angular grid specification: user-specified.
  | Specified grid contains     5 separate shells.
  | Check grid settings after all constraints further below.
  | Found free-atom valence shell :  2 s   1.000
  | Found free-ion valence shell :  1 s   2.000
  | Found hydrogenic basis function :  2 p   1.600
  | Found hydrogenic basis function :  2 s   2.000
  | Found hydrogenic basis function :  3 d   2.600
  | Found hydrogenic basis function :  3 p   4.600
  | Found hydrogenic basis function :  2 p   1.800
  | Found hydrogenic basis function :  3 s   6.200
  | Found hydrogenic basis function :  4 d   4.700
  | Found hydrogenic basis function :  4 f   4.100
  Species Li                  : Missing cutoff potential type.
  Defaulting to exp(1/x)/(1-x)^2 type cutoff potential.
  Species Li: No 'logarithmic' tag. Using default grid for free atom:
  | Default logarithmic grid data [bohr] : 0.1000E-03 0.1000E+03 0.1012E+01
  Species Li: On-site basis accuracy parameter (for Gram-Schmidt orthonormalisation) not specified.
  Using default value basis_acc =  0.1000000E-03.
  Species Li                  : Using default innermost maximum threshold i_radial=  2 for radial functions.
  Species Li                  : Default cutoff onset for free atom density etc. : 0.50000000E+01 AA.
  Species Li                  : Basic radial grid will be enhanced according to radial_multiplier =   2, to contain    59 grid points.
 
  Reading configuration options for species P                   .
  | Found nuclear charge :  15.0000
  | Found atomic mass :    30.9737620000000      amu
  | Found l_max for Hartree potential  :   6
  | Found cutoff potl. onset [A], width [A], scale factor :    4.00000    2.00000    1.00000
  | Threshold for basis-dependent cutoff potential is   0.100000E-03
  | Found data for basic radial integration grid :    43 points, outermost radius =    7.000 A
  | Found multiplier for basic radial grid :   2
  | Found angular grid specification: user-specified.
  | Specified grid contains     6 separate shells.
  | Check grid settings after all constraints further below.
  | Found free-atom valence shell :  3 s   2.000
  | Found free-atom valence shell :  3 p   3.000
  | Found free-ion valence shell :  3 s   1.000
  | Found free-ion valence shell :  3 p   2.000
  | Found ionic basis function :  3 d , default cutoff radius.
  | Found ionic basis function :  3 p , default cutoff radius.
  | Found hydrogenic basis function :  4 f   6.200
  | Found hydrogenic basis function :  5 g   8.600
  | Found ionic basis function :  3 s , default cutoff radius.
  | Found hydrogenic basis function :  4 d   6.200
  Species P                   : Missing cutoff potential type.
  Defaulting to exp(1/x)/(1-x)^2 type cutoff potential.
  Species P : No 'logarithmic' tag. Using default grid for free atom:
  | Default logarithmic grid data [bohr] : 0.1000E-03 0.1000E+03 0.1012E+01
  | Will include ionic basis functions of  2.0-fold positive P                    ion.
  Species P : On-site basis accuracy parameter (for Gram-Schmidt orthonormalisation) not specified.
  Using default value basis_acc =  0.1000000E-03.
  Species P                   : Using default innermost maximum threshold i_radial=  2 for radial functions.
  Species P                   : Default cutoff onset for free atom density etc. : 0.40000000E+01 AA.
  Species P                   : Basic radial grid will be enhanced according to radial_multiplier =   2, to contain    87 grid points.
 
  Reading configuration options for species S                   .
  | Found nuclear charge :  16.0000
  | Found atomic mass :    32.0650000000000      amu
  | Found l_max for Hartree potential  :   6
  | Found cutoff potl. onset [A], width [A], scale factor :    4.00000    2.00000    1.00000
  | Threshold for basis-dependent cutoff potential is   0.100000E-03
  | Found data for basic radial integration grid :    44 points, outermost radius =    7.000 A
  | Found multiplier for basic radial grid :   2
  | Found angular grid specification: user-specified.
  | Specified grid contains     5 separate shells.
  | Check grid settings after all constraints further below.
  | Found free-atom valence shell :  3 s   2.000
  | Found free-atom valence shell :  3 p   4.000
  | Found free-ion valence shell :  3 s   1.000
  | Found free-ion valence shell :  3 p   3.000
  | Found ionic basis function :  3 d , default cutoff radius.
  | Found hydrogenic basis function :  2 p   1.800
  | Found hydrogenic basis function :  4 f   7.000
  | Found ionic basis function :  3 s , default cutoff radius.
  | Found hydrogenic basis function :  4 d   6.200
  | Found hydrogenic basis function :  5 g  10.800
  Species S                   : Missing cutoff potential type.
  Defaulting to exp(1/x)/(1-x)^2 type cutoff potential.
  Species S : No 'logarithmic' tag. Using default grid for free atom:
  | Default logarithmic grid data [bohr] : 0.1000E-03 0.1000E+03 0.1012E+01
  | Will include ionic basis functions of  2.0-fold positive S                    ion.
  Species S : On-site basis accuracy parameter (for Gram-Schmidt orthonormalisation) not specified.
  Using default value basis_acc =  0.1000000E-03.
  Species S                   : Using default innermost maximum threshold i_radial=  2 for radial functions.
  Species S                   : Default cutoff onset for free atom density etc. : 0.40000000E+01 AA.
  Species S                   : Basic radial grid will be enhanced according to radial_multiplier =   2, to contain    89 grid points.
 
  Reading configuration options for species Cl                  .
  | Found nuclear charge :  17.0000
  | Found atomic mass :    35.4530000000000      amu
  | Found l_max for Hartree potential  :   6
  | Found cutoff potl. onset [A], width [A], scale factor :    4.00000    2.00000    1.00000
  | Threshold for basis-dependent cutoff potential is   0.100000E-03
  | Found data for basic radial integration grid :    45 points, outermost radius =    7.000 A
  | Found multiplier for basic radial grid :   2
  | Found angular grid specification: user-specified.
  | Specified grid contains     5 separate shells.
  | Check grid settings after all constraints further below.
  | Found free-atom valence shell :  3 s   2.000
  | Found free-atom valence shell :  3 p   5.000
  | Found free-ion valence shell :  3 s   1.000
  | Found free-ion valence shell :  3 p   4.000
  | Found ionic basis function :  3 d , default cutoff radius.
  | Found hydrogenic basis function :  2 p   1.900
  | Found hydrogenic basis function :  4 f   7.400
  | Found ionic basis function :  3 s , default cutoff radius.
  | Found hydrogenic basis function :  5 g  10.400
  | Found hydrogenic basis function :  3 d   3.300
  Species Cl                  : Missing cutoff potential type.
  Defaulting to exp(1/x)/(1-x)^2 type cutoff potential.
  Species Cl: No 'logarithmic' tag. Using default grid for free atom:
  | Default logarithmic grid data [bohr] : 0.1000E-03 0.1000E+03 0.1012E+01
  | Will include ionic basis functions of  2.0-fold positive Cl                   ion.
  Species Cl: On-site basis accuracy parameter (for Gram-Schmidt orthonormalisation) not specified.
  Using default value basis_acc =  0.1000000E-03.
  Species Cl                  : Using default innermost maximum threshold i_radial=  2 for radial functions.
  Species Cl                  : Default cutoff onset for free atom density etc. : 0.40000000E+01 AA.
  Species Cl                  : Basic radial grid will be enhanced according to radial_multiplier =   2, to contain    91 grid points.
 
  Finished reading input file 'control.in'. Consistency checks are next.
 
  MPI_IN_PLACE appears to work with this MPI implementation.
  | Keeping use_mpi_in_place .true. (see manual).
  Target number of points in a grid batch is not set. Defaulting to  100
  Method for grid partitioning is not set. Defaulting to parallel hash+maxmin partitioning.
  Batch size limit is not set. Defaulting to    200
  By default, will store active basis functions for each batch.
  If in need of memory, prune_basis_once .false. can be used to disable this option.
  communication_type for Hartree potential was not specified.
  Defaulting to calc_hartree .
  Defaulting to Pulay charge density mixer.
  Pulay mixer: Number of relevant iterations not set.
  Defaulting to    8 iterations.
  Pulay mixer: Number of initial linear mixing iterations not set.
  Defaulting to    0 iterations.
  Work space size for distributed Hartree potential not set.
  Defaulting to   0.200000E+03 MB.
  Mixing parameter for charge density mixing has not been set.
  Using default: charge_mix_param =     0.0500.
  The mixing parameter will be adjusted in iteration number     2 of the first full s.c.f. cycle only.
  Algorithm-dependent basis array size parameters:
  | n_max_pulay                         :        8
  Maximum number of self-consistency iterations not provided.
  Presetting  1000 iterations.
  Presetting      1001 iterations before the initial mixing cycle
  is restarted anyway using the sc_init_iter criterion / keyword.
  Presetting a factor      1.000 between actual scf density residual
  and density convergence criterion sc_accuracy_rho below which sc_init_iter
  takes no effect.
  Geometry relaxation not requested: no relaxation will be performed.
  Handling of forces: Unphysical translation and rotation will be removed from forces.
  No accuracy limit for integral partition fn. given. Defaulting to  0.1000E-14.
  No threshold value for u(r) in integrations given. Defaulting to  0.1000E-05.
  No occupation type (smearing scheme) given. Defaulting to Gaussian broadening, width =  0.1000E-01 eV.
  The width will be adjusted in iteration number     2 of the first full s.c.f. cycle only.
  S.C.F. convergence parameters will be adjusted in iteration number     2 of the first full s.c.f. cycle only.
  No accuracy for occupation numbers given. Defaulting to  0.1000E-12.
  No threshold value for occupation numbers given. Defaulting to  0.0000E+00.
  No accuracy for fermi level given. Defaulting to  0.1000E-19.
  Maximum # of iterations to find E_F not set. Defaulting to  200.
  Preferred method for the eigenvalue solver ('KS_method') not specified in 'control.in'.
  Calling BLACS routine to test compilation state
  Since ScaLAPACK support is enabled, defaulting to 'elsi'.
  Will not use alltoall communication since running on < 1024 CPUs.
  Threshold for basis singularities not set.
  Default threshold for basis singularities:  0.1000E-04
  partition_type (choice of integration weights) for integrals was not specified.
  | Using a version of the partition function of Stratmann and coworkers ('stratmann_smoother').
  | At each grid point, the set of atoms used to build the partition table is smoothly restricted to
  | only those atoms whose free-atom density would be non-zero at that grid point.
  Partitioning for Hartree potential was not defined. Using partition_type for integrals.
  | Adjusted default value of keyword multip_moments_threshold to:       0.10000000E-11
  | This value may affect high angular momentum components of the Hartree potential in periodic systems.
  Spin handling was not defined in control.in. Defaulting to unpolarized case.
  Angular momentum expansion for Kerker preconditioner not set explicitly.
  | Using default value of   0
  No explicit requirement for turning off preconditioner.
  | By default, it will be turned off when the charge convergence reaches
  | sc_accuracy_rho  =   0.100000E-05
  | sc_accuracy_eev  =   0.100000E-02
  | sc_accuracy_etot =   0.100000E-05
  No special mixing parameter while Kerker preconditioner is on.
  Using default: charge_mix_param =     0.0500.
  No q(lm)/r^(l+1) cutoff set for long-range Hartree potential.
  | Using default value of  0.100000E-09 .
  | Verify using the multipole_threshold keyword.
  Defaulting to new monopole extrapolation.
  Density update method: automatic selection selected.
  Using density matrix based charge density update.
  Using density matrix based charge density update.
  Using packed matrix style: index .
  Defaulting to use time-reversal symmetry for k-point grid.
------------------------------------------------------------


------------------------------------------------------------
          Reading geometry description geometry.in.
------------------------------------------------------------
 * Warning! You did not set the 'relativistic' flag in input file 'control.in'.
 * Since you are not attempting to treat any elements beyond Ca(Z=20), FHI-aims
 * will default to 'relativistic none'.
 * You must ensure that this is really what you want!!
 * For example, DO NOT compute total-energy differences between results from
 * different settings of the 'relativistic' flag.
  Input structure read successfully.
  The structure contains      104 atoms,  and a total of       1344.000 electrons.

  Input geometry:
  | Unit cell:
  |       20.39446875        0.00000000        0.00000000
  |        0.00000000       16.93038336        0.00000000
  |        0.00000000        0.00000000        7.82714924
  | Atomic structure:
  |       Atom                x [A]            y [A]            z [A]
  |    1: Species Li            2.81487940        2.50568491        4.85089505
  |    2: Species Li            1.82080529        8.49571684        4.40295153
  |    3: Species Li            9.33639757        3.82925435        2.94978839
  |    4: Species Li            7.12299895        1.45348099        6.59661658
  |    5: Species Li            8.38304045        0.96570721        3.19684964
  |    6: Species Li            6.96480071        6.18874945        3.60345424
  |    7: Species Li           13.04890649        2.49912986        2.69773033
  |    8: Species Li           12.44197433        8.81531420        4.55857250
  |    9: Species Li           20.01672555        4.79368445        4.42982018
  |   10: Species Li           14.50592221        3.02831307        6.56209863
  |   11: Species Li           18.55778796        1.08056223        4.77378344
  |   12: Species Li           16.54548870        7.53378484        5.56280936
  |   13: Species Li            3.58940703       11.50480473        4.78893414
  |   14: Species Li            1.41271710       16.86466279        4.47269517
  |   15: Species Li            9.49270736       12.85815333        4.20841040
  |   16: Species Li            6.84440172        9.11351398        4.92291211
  |   17: Species Li            8.62207947        9.48093601        2.30874673
  |   18: Species Li            6.80292709       14.99386791        4.77857801
  |   19: Species Li           12.95867456       11.47411206        2.71635182
  |   20: Species Li           11.80496689       16.82947545        3.59128213
  |   21: Species Li            0.17178672       13.28095840        4.59525470
  |   22: Species Li           16.84264822       10.75838596        6.53445459
  |   23: Species Li           19.02674408        9.14292607        3.36814336
  |   24: Species Li           17.14017972       15.55239989        5.42992589
  |   25: Species P             9.45474584        7.43055796        4.65531634
  |   26: Species P             4.85898557        0.66849594        3.50981238
  |   27: Species P            19.83729130        8.24180371        6.58482865
  |   28: Species P            15.41715679        1.19141548        3.02844237
  |   29: Species P             9.58876143       16.19731638        5.47072292
  |   30: Species P             4.59075806        8.80447110        2.84379317
  |   31: Species P            19.84669887       16.55321819        6.71591363
  |   32: Species P            15.29996030        9.23486382        3.41753560
  |   33: Species S             1.24393140        0.76020670        6.96505843
  |   34: Species S             3.01577789        0.42948072        2.59694466
  |   35: Species S             5.66752157        2.69636724        2.38100872
  |   36: Species S             9.31413498        6.38140640        2.72626777
  |   37: Species S             8.07918538       15.97094240        6.86524198
  |   38: Species S             6.42914069        7.95758340        2.32400824
  |   39: Species S            11.22365361        6.70248314        5.68363152
  |   40: Species S             4.72580509        1.27821878        5.57215824
  |   41: Species S             0.38596255        2.73315783        2.34768860
  |   42: Species S             1.31311011        4.73205287        2.45997551
  |   43: Species S             7.42656653        2.27334925        1.36407605
  |   44: Species S             7.94189312        3.13763585        4.92554056
  |   45: Species S            11.53502233        4.81009592        4.57242670
  |   46: Species S             6.24372931        3.98960225        4.27275996
  |   47: Species S             3.20821243        4.66314194        3.48095303
  |   48: Species S             3.08170380        5.96442905        5.33088529
  |   49: Species S             0.40227703        2.28226137        4.37675469
  |   50: Species S             2.33061364        4.81893034        6.85627892
  |   51: Species S            10.22006465        1.24604622        5.27687459
  |   52: Species S            14.48884418        1.07487591        1.17714748
  |   53: Species S            16.42683471        3.27482776        3.09327223
  |   54: Species S            19.72456095        7.23218127        4.59285811
  |   55: Species S            18.08926337        0.55683361        7.20561899
  |   56: Species S            16.66440405        7.80083734        3.01134738
  |   57: Species S            19.94813503        6.64335068        0.18645319
  |   58: Species S            13.92086000        1.31765405        4.57583474
  |   59: Species S            10.60300091        1.74649397        0.38189656
  |   60: Species S            10.42719768        3.76901008        0.11530943
  |   61: Species S            17.76349459        3.45979893        4.68628723
  |   62: Species S            16.78959922        4.15285241        6.67100363
  |   63: Species S             0.16226820        4.87749719        6.91254158
  |   64: Species S            15.34257577        5.43482730        6.25887363
  |   65: Species S            12.51738804        4.50826983        7.82022401
  |   66: Species S            12.95803394        5.95853321        1.64955000
  |   67: Species S            10.71100378        1.73072367        2.51114244
  |   68: Species S            13.36354398        5.08268097        3.43997707
  |   69: Species S             1.11524198        9.52911992        6.81557193
  |   70: Species S             2.87350834        7.94403836        1.95147757
  |   71: Species S             4.83952799       10.86385513        2.12752073
  |   72: Species S             9.22202919       15.07991638        3.59112747
  |   73: Species S             7.78900526        7.18570833        5.88805525
  |   74: Species S             6.30009023       16.29583466        2.87456601
  |   75: Species S            11.58131014       15.66192980        6.17027360
  |   76: Species S             4.38502024        9.18918255        4.95772491
  |   77: Species S             1.32316484       11.44656787        2.09496362
  |   78: Species S             1.69344984       13.56915670        2.50567256
  |   79: Species S             6.86874421       11.53512605        2.39190953
  |   80: Species S             7.22832869       11.68421483        4.58392864
  |   81: Species S            11.46224041       13.51607144        5.75578900
  |   82: Species S             5.80720493       12.87577374        5.59225561
  |   83: Species S             3.54556471       13.77850061        3.67264737
  |   84: Species S             3.12431137       15.03479316        5.48503340
  |   85: Species S             0.92480286       10.81685391        4.05591801
  |   86: Species S             2.63963261       13.88236829        7.10308031
  |   87: Species S            10.02201827        9.48781222        4.63707718
  |   88: Species S            13.51287742        9.11928923        2.33178140
  |   89: Species S            16.07459248       11.15899826        2.65231950
  |   90: Species S            19.65121377       15.53640418        4.71901929
  |   91: Species S            18.02839195        8.92476237        7.39191879
  |   92: Species S            16.83756092       16.74497701        3.21871821
  |   93: Species S            19.84548083       14.97180430        0.30475479
  |   94: Species S            14.77717476        9.46318845        5.48496715
  |   95: Species S            10.77544422       12.67013434        0.85973814
  |   96: Species S            11.94036949       14.44102742        1.51628152
  |   97: Species S            18.12389961       11.40019130        2.87685623
  |   98: Species S            18.38079951       12.06030226        5.14523443
  |   99: Species S             0.50188618       13.41314427        7.09368151
  |  100: Species S            16.74182351       13.09026320        5.89371012
  |  101: Species S            13.93699716       13.77816457        1.79538564
  |  102: Species S            14.29052915       14.47114691        3.86320336
  |  103: Species S            10.51101365       11.39500640        2.43476982
  |  104: Species S            13.50466114       13.03871384        5.10501217

  Lattice parameters for 3D lattice (in Angstroms) :    20.394469   16.930383    7.827149
  Angle(s) between unit vectors (in degrees)      :    90.000000   90.000000   90.000000

  |

  | The smallest distance between any two atoms is         1.97666072 AA.
  |
  | The first atom of this pair is atom number                     62 .
  | The second atom of this pair is atom number                    64 .
  | Wigner-Seitz cell of the first atom image           0     0     0 .
  | (The Wigner-Seitz cell of the second atom is 0 0 0  by definition.)

  Symmetry information by spglib:
  | Precision set to  0.1E-04
  | Number of Operations  : 1
  | Space group           : 1
  | International         : P1 P
  | Schoenflies           : C1^1

  Quantities derived from the lattice vectors:
  | Reciprocal lattice vector 1:  0.308083  0.000000  0.000000
  | Reciprocal lattice vector 2:  0.000000  0.371119  0.000000
  | Reciprocal lattice vector 3:  0.000000  0.000000  0.802742
  | Unit cell volume                               :   0.270261E+04  A^3

  Range separation radius for Ewald summation (hartree_convergence_parameter):      4.27492232 bohr.

  Fractional coordinates:
                         L1                L2                L3
       atom_frac         0.13802171        0.14799930        0.61975247  Li
       atom_frac         0.08927937        0.50180298        0.56252301  Li
       atom_frac         0.45779067        0.22617647        0.37686625  Li
       atom_frac         0.34926131        0.08585045        0.84278661  Li
       atom_frac         0.41104481        0.05703989        0.40843090  Li
       atom_frac         0.34150440        0.36554101        0.46037889  Li
       atom_frac         0.63982576        0.14761212        0.34466320  Li
       atom_frac         0.61006612        0.52068013        0.58240521  Li
       atom_frac         0.98147815        0.28314093        0.56595576  Li
       atom_frac         0.71126747        0.17886855        0.83837658  Li
       atom_frac         0.90994221        0.06382385        0.60990065  Li
       atom_frac         0.81127334        0.44498608        0.71070695  Li
       atom_frac         0.17599905        0.67953599        0.61183631  Li
       atom_frac         0.06926962        0.99611819        0.57143348  Li
       atom_frac         0.46545500        0.75947207        0.53766835  Li
       atom_frac         0.33560088        0.53829342        0.62895340  Li
       atom_frac         0.42276558        0.55999535        0.29496649  Li
       atom_frac         0.33356726        0.88561893        0.61051321  Li
       atom_frac         0.63540143        0.67772311        0.34704229  Li
       atom_frac         0.57883179        0.99403983        0.45882377  Li
       atom_frac         0.00842320        0.78444523        0.58709174  Li
       atom_frac         0.82584393        0.63544846        0.83484477  Li
       atom_frac         0.93293649        0.54003066        0.43031546  Li
       atom_frac         0.84043276        0.91860884        0.69372970  Li
       atom_frac         0.46359363        0.43888894        0.59476525  P
       atom_frac         0.23825017        0.03948499        0.44841516  P
       atom_frac         0.97267997        0.48680550        0.84128058  P
       atom_frac         0.75594795        0.07037144        0.38691512  P
       atom_frac         0.47016481        0.95670110        0.69894195  P
       atom_frac         0.22509819        0.52003968        0.36332425  P
       atom_frac         0.97314125        0.97772259        0.85802805  P
       atom_frac         0.75020146        0.54546100        0.43662584  P
       atom_frac         0.06099357        0.04490192        0.88985890  S
       atom_frac         0.14787234        0.02536745        0.33178678  S
       atom_frac         0.27789503        0.15926203        0.30419871  S
       atom_frac         0.45669907        0.37692037        0.34830916  S
       atom_frac         0.39614591        0.94333023        0.87710631  S
       atom_frac         0.31523943        0.47001791        0.29691631  S
       atom_frac         0.55032831        0.39588490        0.72614324  S
       atom_frac         0.23171994        0.07549851        0.71190137  S
       atom_frac         0.01892486        0.16143508        0.29994172  S
       atom_frac         0.06438560        0.27950063        0.31428754  S
       atom_frac         0.36414611        0.13427630        0.17427495  S
       atom_frac         0.38941407        0.18532574        0.62928921  S
       atom_frac         0.56559563        0.28411028        0.58417523  S
       atom_frac         0.30614817        0.23564748        0.54588968  S
       atom_frac         0.15730797        0.27543038        0.44472808  S
       atom_frac         0.15110488        0.35229144        0.68107623  S
       atom_frac         0.01972481        0.13480270        0.55917609  S
       atom_frac         0.11427675        0.28463209        0.87596118  S
       atom_frac         0.50111943        0.07359823        0.67417580  S
       atom_frac         0.71043009        0.06348798        0.15039288  S
       atom_frac         0.80545539        0.19342904        0.39519781  S
       atom_frac         0.96715248        0.42717174        0.58678555  S
       atom_frac         0.88696909        0.03288960        0.92059302  S
       atom_frac         0.81710410        0.46075964        0.38473105  S
       atom_frac         0.97811496        0.39239222        0.02382134  S
       atom_frac         0.68258017        0.07782777        0.58461064  S
       atom_frac         0.51989591        0.10315738        0.04879127  S
       atom_frac         0.51127577        0.22261812        0.01473198  S
       atom_frac         0.87099570        0.20435444        0.59872210  S
       atom_frac         0.82324278        0.24528992        0.85229033  S
       atom_frac         0.00795648        0.28809136        0.88314933  S
       atom_frac         0.75229102        0.32101029        0.79963642  S
       atom_frac         0.61376387        0.26628280        0.99911523  S
       atom_frac         0.63537002        0.35194319        0.21074723  S
       atom_frac         0.52519161        0.10222590        0.32082465  S
       atom_frac         0.65525335        0.30021062        0.43949297  S
       atom_frac         0.05468355        0.56284136        0.87076044  S
       atom_frac         0.14089645        0.46921787        0.24932162  S
       atom_frac         0.23729610        0.64167804        0.27181298  S
       atom_frac         0.45218286        0.89070141        0.45880401  S
       atom_frac         0.38191754        0.42442679        0.75226051  S
       atom_frac         0.30891171        0.96252012        0.36725581  S
       atom_frac         0.56786525        0.92507827        0.78831685  S
       atom_frac         0.21501027        0.54276282        0.63340110  S
       atom_frac         0.06487861        0.67609620        0.26765347  S
       atom_frac         0.08303476        0.80146778        0.32012582  S
       atom_frac         0.33679447        0.68132693        0.30559140  S
       atom_frac         0.35442594        0.69013292        0.58564472  S
       atom_frac         0.56202692        0.79833227        0.73536211  S
       atom_frac         0.28474411        0.76051283        0.71446902  S
       atom_frac         0.17384933        0.81383276        0.46921903  S
       atom_frac         0.15319405        0.88803619        0.70077026  S
       atom_frac         0.04534577        0.63890189        0.51818585  S
       atom_frac         0.12942885        0.81996775        0.90749264  S
       atom_frac         0.49140865        0.56040150        0.59243500  S
       atom_frac         0.66257560        0.53863454        0.29790941  S
       atom_frac         0.78818393        0.65911078        0.33886150  S
       atom_frac         0.96355605        0.91766405        0.60290396  S
       atom_frac         0.88398439        0.52714473        0.94439477  S
       atom_frac         0.82559448        0.98904890        0.41122484  S
       atom_frac         0.97308153        0.88431573        0.03893561  S
       atom_frac         0.72456777        0.55894709        0.70076180  S
       atom_frac         0.52835131        0.74836665        0.10984052  S
       atom_frac         0.58547097        0.85296518        0.19372079  S
       atom_frac         0.88866740        0.67335695        0.36754841  S
       atom_frac         0.90126395        0.71234667        0.65735739  S
       atom_frac         0.02460894        0.79225284        0.90629184  S
       atom_frac         0.82090020        0.77318174        0.75298297  S
       atom_frac         0.68337142        0.81381291        0.22937925  S
       atom_frac         0.70070612        0.85474420        0.49356455  S
       atom_frac         0.51538551        0.67305070        0.31106725  S
       atom_frac         0.66217273        0.77013695        0.65221858  S

  Number of empty states per atom not set in control.in - providing a guess from actual geometry.
  | Total number of empty states used during s.c.f. cycle:      276
  If you use a very high smearing, use empty_states (per atom!) in control.in to increase this value.

  Structure-dependent array size parameters: 
  | Maximum number of distinct radial functions  :       43
  | Maximum number of basis functions            :     3840
  | Number of Kohn-Sham states (occupied + empty):      948
------------------------------------------------------------

------------------------------------------------------------
          Preparing all fixed parts of the calculation.
------------------------------------------------------------
  Determining machine precision:
    2.225073858507201E-308
  Setting up grids for atomic and cluster calculations.

  Creating wave function, potential, and density for free atoms.

  Species: Li

  List of occupied orbitals and eigenvalues:
    n    l              occ      energy [Ha]    energy [eV]
    1    0           2.0000        -1.901473       -51.7417
    2    0           1.0000        -0.103132        -2.8064


  Species: P

  List of occupied orbitals and eigenvalues:
    n    l              occ      energy [Ha]    energy [eV]
    1    0           2.0000       -76.356288     -2077.7603
    2    0           2.0000        -6.358286      -173.0178
    3    0           2.0000        -0.509419       -13.8620
    2    1           6.0000        -4.573976      -124.4642
    3    1           3.0000        -0.201560        -5.4847


  Species: S

  List of occupied orbitals and eigenvalues:
    n    l              occ      energy [Ha]    energy [eV]
    1    0           2.0000       -88.108280     -2397.5483
    2    0           2.0000        -7.732485      -210.4116
    3    0           2.0000        -0.629532       -17.1304
    2    1           6.0000        -5.750324      -156.4743
    3    1           4.0000        -0.257562        -7.0086


  Species: Cl

  List of occupied orbitals and eigenvalues:
    n    l              occ      energy [Ha]    energy [eV]
    1    0           2.0000      -100.710795     -2740.4802
    2    0           2.0000        -9.222997      -250.9705
    3    0           2.0000        -0.754245       -20.5241
    2    1           6.0000        -7.039872      -191.5647
    3    1           5.0000        -0.316221        -8.6048

  Creating fixed part of basis set: Ionic, confined, hydrogenic.
 
  Li                   hydrogenic:
 
  List of hydrogenic basis orbitals: 
    n    l      effective z      eigenvalue [eV]  inner max. [A]     outer max. [A]     outer radius [A]   
    2    1         1.600000        -8.7048           1.319365           1.319365           6.386418
    2    0         2.000000       -13.6052           0.203259           1.385485           6.232164
    3    2         2.600000       -10.2084           1.835332           1.835332           6.386418
    3    1         4.600000       -31.9883           0.343834           1.385485           5.381805
    2    1         1.800000       -11.0199           1.181903           1.181903           6.386418
    3    0         6.200000       -58.1113           0.062858           1.111823           4.371906
    4    2         4.700000       -18.7772           0.761113           2.401695           6.386418
    4    3         4.100000       -14.2833           2.073992           2.073992           6.386418
 
 
  P                    ion:

  List of free ionic orbitals and eigenvalues:
    n    l      energy [Ha]    energy [eV]
    1    0       -77.297133     -2103.3620
    2    0        -7.273914      -197.9333
    3    0        -1.267536       -34.4914
    2    1        -5.491316      -149.4263
    3    1        -0.913470       -24.8568


  List of ionic basis orbitals and eigenvalues:
    n    l      energy [Ha]    energy [eV]    outer radius [A]
    3    2        -0.458060       -12.4644       5.404780
    3    1        -0.913461       -24.8565       4.724723
    3    0        -1.267529       -34.4912       4.232463

 
  P                    hydrogenic:
 
  List of hydrogenic basis orbitals: 
    n    l      effective z      eigenvalue [eV]  inner max. [A]     outer max. [A]     outer radius [A]   
    4    3         6.200000       -32.6870           1.357793           1.357793           5.339109
    5    4         8.600000       -40.2502           1.534356           1.534356           5.404780
    4    2         6.200000       -32.6848           0.577014           1.820771           5.404780
 
 
  S                    ion:

  List of free ionic orbitals and eigenvalues:
    n    l      energy [Ha]    energy [eV]
    1    0       -89.127201     -2425.2745
    2    0        -8.724378      -237.4024
    3    0        -1.464668       -39.8556
    2    1        -6.744348      -183.5230
    3    1        -1.048520       -28.5317


  List of ionic basis orbitals and eigenvalues:
    n    l      energy [Ha]    energy [eV]    outer radius [A]
    3    2        -0.496514       -13.5108       5.386362
    3    0        -1.464662       -39.8555       3.967934

 
  S                    hydrogenic:
 
  List of hydrogenic basis orbitals: 
    n    l      effective z      eigenvalue [eV]  inner max. [A]     outer max. [A]     outer radius [A]   
    2    1         1.800000       -11.0118           1.168531           1.168531           5.452614
    4    3         7.000000       -41.6672           1.212182           1.212182           5.066981
    4    2         6.200000       -32.6848           0.582121           1.814567           5.386362
    5    4        10.800000       -63.4785           1.227092           1.227092           4.766538
 
 
  Cl                   ion:

  List of free ionic orbitals and eigenvalues:
    n    l      energy [Ha]    energy [eV]
    1    0      -101.807232     -2770.3157
    2    0       -10.290876      -280.0290
    3    0        -1.664625       -45.2967
    2    1        -8.110237      -220.6908
    3    1        -1.183915       -32.2160


  List of ionic basis orbitals and eigenvalues:
    n    l      energy [Ha]    energy [eV]    outer radius [A]
    3    2        -0.529392       -14.4055       5.389057
    3    0        -1.664620       -45.2966       3.780461

 
  Cl                   hydrogenic:
 
  List of hydrogenic basis orbitals: 
    n    l      effective z      eigenvalue [eV]  inner max. [A]     outer max. [A]     outer radius [A]   
    2    1         1.900000       -12.2741           1.113321           1.113321           5.389057
    4    3         7.400000       -46.5653           1.140877           1.140877           4.886961
    5    4        10.400000       -58.8635           1.273568           1.273568           4.886961
    3    2         3.300000       -16.4532           1.439178           1.439178           5.455343
 

  Adding cutoff potential to free-atom effective potential.
  Creating atomic-like basis functions for current effective potential.

  Species Li                  :

  List of atomic basis orbitals and eigenvalues:
    n    l      energy [Ha]    energy [eV]    outer radius [A]
    1    0        -1.901473       -51.7417       4.318785
    2    0        -0.103132        -2.8064       6.464971


  Species P                   :

  List of atomic basis orbitals and eigenvalues:
    n    l      energy [Ha]    energy [eV]    outer radius [A]
    1    0       -76.356288     -2077.7603       0.736837
    2    0        -6.358286      -173.0178       2.532824
    3    0        -0.509419       -13.8620       5.274236
    2    1        -4.573976      -124.4642       2.862183
    3    1        -0.201560        -5.4847       5.404780


  Species S                   :

  List of atomic basis orbitals and eigenvalues:
    n    l      energy [Ha]    energy [eV]    outer radius [A]
    1    0       -88.108280     -2397.5483       0.682391
    2    0        -7.732485      -210.4116       2.317169
    3    0        -0.629532       -17.1304       5.256262
    2    1        -5.750324      -156.4743       2.555240
    3    1        -0.257562        -7.0086       5.386362


  Species Cl                  :

  List of atomic basis orbitals and eigenvalues:
    n    l      energy [Ha]    energy [eV]    outer radius [A]
    1    0      -100.710795     -2740.4802       0.642251
    2    0        -9.222997      -250.9705       2.128190
    3    0        -0.754245       -20.5241       5.194994
    2    1        -7.039872      -191.5647       2.346844
    3    1        -0.316221        -8.6048       5.323577

  Assembling full basis from fixed parts.
  | Species Li :   atomic orbital   1 s accepted.
  | Species Li :    hydro orbital   3 s accepted.
  | Species Li :    hydro orbital   2 s accepted.
  | Species Li :   atomic orbital   2 s accepted.
  | Species Li :    hydro orbital   3 p accepted.
  | Species Li :    hydro orbital   2 p accepted.
  | Species Li :    hydro orbital   2 p accepted.
  | Species Li :    hydro orbital   3 d accepted.
  | Species Li :    hydro orbital   4 d accepted.
  | Species Li :    hydro orbital   4 f accepted.
  | Species P :   atomic orbital   1 s accepted.
  | Species P :   atomic orbital   2 s accepted.
  | Species P :    ionic orbital   3 s accepted.
  | Species P :   atomic orbital   3 s accepted.
  | Species P :   atomic orbital   2 p accepted.
  | Species P :    ionic orbital   3 p accepted.
  | Species P :   atomic orbital   3 p accepted.
  | Species P :    ionic orbital   3 d accepted.
  | Species P :    hydro orbital   4 d accepted.
  | Species P :    hydro orbital   4 f accepted.
  | Species P :    hydro orbital   5 g accepted.
  | Species S :   atomic orbital   1 s accepted.
  | Species S :   atomic orbital   2 s accepted.
  | Species S :    ionic orbital   3 s accepted.
  | Species S :   atomic orbital   3 s accepted.
  | Species S :   atomic orbital   2 p accepted.
  | Species S :   atomic orbital   3 p accepted.
  | Species S :    hydro orbital   2 p accepted.
  | Species S :    ionic orbital   3 d accepted.
  | Species S :    hydro orbital   4 d accepted.
  | Species S :    hydro orbital   4 f accepted.
  | Species S :    hydro orbital   5 g accepted.
  | Species Cl :   atomic orbital   1 s accepted.
  | Species Cl :   atomic orbital   2 s accepted.
  | Species Cl :    ionic orbital   3 s accepted.
  | Species Cl :   atomic orbital   3 s accepted.
  | Species Cl :   atomic orbital   2 p accepted.
  | Species Cl :   atomic orbital   3 p accepted.
  | Species Cl :    hydro orbital   2 p accepted.
  | Species Cl :    ionic orbital   3 d accepted.
  | Species Cl :    hydro orbital   3 d accepted.
  | Species Cl :    hydro orbital   4 f accepted.
  | Species Cl :    hydro orbital   5 g accepted.
 
  Basis size parameters after reduction:
  | Total number of radial functions:       43
  | Total number of basis functions :     3840
 
  Per-task memory consumption for arrays in subroutine allocate_ext:
  |          11.342760MB.
  Testing on-site integration grid accuracy.
  |  Species  Function  <phi|h_atom|phi> (log., in eV)  <phi|h_atom|phi> (rad., in eV)
           1        1                -51.7417001117                -51.7417000312
           1        2                 33.5927188637                 33.5926505054
           1        3                 69.1469416012                 69.1473382425
           1        4                 48.8336153902                 48.8810182289 ***
           1        5                 17.1749490570                 17.1749098864
           1        6                 32.1201183828                 32.1217831653
           1        7                  6.0166019876                  6.0249480535
           1        8                  4.9175332206                  4.9194842525
           1        9                 28.8010599263                 28.8011051086
           1       10                  9.9331480983                  9.9353515081
           2       11              -2077.7602992527              -2077.7602630746
           2       12               -173.0177635265               -173.0177629291
           2       13                -13.5620523038                -13.5620521963
           2       14                  6.3015351439                  6.3015396353
           2       15               -124.4642131574               -124.4642129967
           2       16                 -4.8468074573                 -4.8468065719
           2       17                  5.8113348591                  5.8108493787
           2       18                  5.1218113540                  5.1217878152
           2       19                 22.1386653152                 22.1386624883
           2       20                 19.3047268689                 19.3047231214
           2       21                 30.3235883931                 30.3235836780
           3       22              -2397.5482725833              -2397.5482291499
           3       23               -210.4116306505               -210.4116300246
           3       24                -16.8591546483                -16.8591544436
           3       25                  7.5848976656                  7.5849001027
           3       26               -156.4742745766               -156.4742744285
           3       27                 -7.0089268331                 -7.0089287934
           3       28                  6.8790437028                  6.8789536772
           3       29                  6.0023049431                  6.0023019693
           3       30                 19.5634804122                 19.5634829634
           3       31                 24.6809503130                 24.6809503093
           3       32                 47.5107032033                 47.5107040524
           4       33              -2740.4801671239              -2740.4801157382
           4       34               -250.9705040601               -250.9705032686
           4       35                -20.2716828479                -20.2716826054
           4       36                  9.0161300765                  9.0161279813
           4       37               -191.5646602865               -191.5646600866
           4       38                 -8.6049187754                 -8.6049181478
           4       39                  7.6458046208                  7.6458222053
           4       40                  6.9765726558                  6.9765744583
           4       41                 16.6546700656                 16.6546956458
           4       42                 28.0343243807                 28.0343233726
           4       43                 45.0370063060                 45.0370052039
 * Note: Onsite integrals marked "***" above are less accurate than
 * onsite_accuracy_threshold =    0.03000 eV. Usually, this is harmless.
 * When in doubt, tighten the "radial" and/or "radial_multiplier" flags to check.

  Preparing densities etc. for the partition functions (integrals / Hartree potential).

  Preparations completed.
  max(cpu_time)          :      0.465 s.
  Wall clock time (cpu1) :      0.466 s.
------------------------------------------------------------

------------------------------------------------------------
          Begin self-consistency loop: Initialization.

          Date     :  20220704, Time     :  064626.796
------------------------------------------------------------

  Initializing index lists of integration centers etc. from given atomic structure:
  Mapping all atomic coordinates to central unit cell.

  Initializing the k-points
          Using symmetry for reducing the k-points
  | k-points reduced from:        2 to        2
  | Number of k-points                             :         2
  The eigenvectors in the calculations are REAL.
  | Number of basis functions in the Hamiltonian integrals :     18945
  | Number of basis functions in a single unit cell        :      3840
  | Number of centers in hartree potential         :      2749
  | Number of centers in hartree multipole         :      1780
  | Number of centers in electron density summation:      1456
  | Number of centers in basis integrals           :      1525
  | Number of centers in integrals                 :       627
  | Number of centers in hamiltonian               :      1780
  | Consuming          1 KiB for k_phase.
  | Number of super-cells (origin) [n_cells]                     :         175
  | Number of super-cells (after PM_index) [n_cells]             :          46
  | Number of super-cells in hamiltonian [n_cells_in_hamiltonian]:          46
  | Size of matrix packed + index [n_hamiltonian_matrix_size] :    13942020
  Using simple linear distribution as default method for k-point parallelism.
  * Using 20 tasks for Scalapack Eigenvalue solver.
  Detailed listing of tasks and assigned k-points:
   Task     0 k-point     1 on node042
   Task     1 k-point     1 on node042
   Task     2 k-point     1 on node042
   Task     3 k-point     1 on node042
   Task     4 k-point     1 on node042
   Task     5 k-point     1 on node042
   Task     6 k-point     1 on node042
   Task     7 k-point     1 on node042
   Task     8 k-point     1 on node042
   Task     9 k-point     1 on node042
   Task    10 k-point     2 on node042
   Task    11 k-point     2 on node042
   Task    12 k-point     2 on node042
   Task    13 k-point     2 on node042
   Task    14 k-point     2 on node042
   Task    15 k-point     2 on node042
   Task    16 k-point     2 on node042
   Task    17 k-point     2 on node042
   Task    18 k-point     2 on node042
   Task    19 k-point     2 on node042
  K-point:     1 Tasks:    10 split into      5 X      2 BLACS grid
  Calculating block size based on n_basis =         3840 max_nprow =            5 max_npcol =            2
  ScaLAPACK block size set to:           16
  Allocating       11.796 MB for ovlp
  Allocating       11.796 MB for ham
  Allocating       11.796 MB for eigenvec
  Required Scalapack workspace - INTEGER:            1 REAL:             1
  Partitioning the integration grid into batches with parallel hashing+maxmin method.
  | Number of batches:    27734
  | Maximal batch size:     136
  | Minimal batch size:      53
  | Average batch size:      84.087
  | Standard deviation of batch sizes:      23.053

  Integration load balanced across    20 MPI tasks.
  Work distribution over tasks is as follows:
  Task     0 has     116628 integration points.
  Task     1 has     116577 integration points.
  Task     2 has     116550 integration points.
  Task     3 has     116627 integration points.
  Task     4 has     116542 integration points.
  Task     5 has     116559 integration points.
  Task     6 has     116620 integration points.
  Task     7 has     116640 integration points.
  Task     8 has     116549 integration points.
  Task     9 has     116576 integration points.
  Task    10 has     116619 integration points.
  Task    11 has     116616 integration points.
  Task    12 has     116648 integration points.
  Task    13 has     116635 integration points.
  Task    14 has     116622 integration points.
  Task    15 has     116640 integration points.
  Task    16 has     116617 integration points.
  Task    17 has     116555 integration points.
  Task    18 has     116635 integration points.
  Task    19 has     116625 integration points.
  Initializing partition tables, free-atom densities, potentials, etc. across the integration grid (initialize_grid_storage).
  | initialize_grid_storage: Actual outermost partition radius vs. multipole_radius_free
  | (-- VB: in principle, multipole_radius_free should be larger, hence this output)
  | Species        1: Confinement radius =              7.000000000000000 AA, multipole_radius_free =              7.042572113910259 AA.
  | Species        1: outer_partition_radius set to              7.042572113910259 AA .
  | Species        2: Confinement radius =              6.000000000000000 AA, multipole_radius_free =              6.033387558927091 AA.
  | Species        2: outer_partition_radius set to              6.033387558927091 AA .
  | Species        3: Confinement radius =              6.000000000000000 AA, multipole_radius_free =              6.012827091137924 AA.
  | Species        3: outer_partition_radius set to              6.012827091137924 AA .
  | Species        4: Confinement radius =              6.000000000000000 AA, multipole_radius_free =              6.015836048499353 AA.
  | Species        4: outer_partition_radius set to              6.015836048499353 AA .
  | Original list of interatomic distances with        1525 x       1525 entries is created.
  | Net number of integration points:  2332080
  | of which are non-zero points    :  1916886
  | Numerical average free-atom electrostatic potential    :     -8.73800351 eV
  Renormalizing the initial density to the exact electron count on the 3D integration grid.
  | Initial density: Formal number of electrons (from input files) :    1344.0000000000
  | Integrated number of electrons on 3D grid     :    1344.0000847213
[...]
  | Total energy evaluation                    :        0.003 s           0.005 s

  Partial memory accounting:
  | Current value for overall tracked memory usage on task 0  :         213.274 MB
  | Peak value for overall tracked memory usage on task 0     :         436.346 MB after allocating temp_ham_ovlp
  | Largest tracked array allocation on task 0 so far         :         111.536 MB  when allocating overlap_matrix
  Note:  These values currently only include a subset of arrays which are explicitly tracked.
  The "true" memory usage will be greater.
------------------------------------------------------------
  |------------------------------------------
  | Final ELSI Output
  |------------------------------------------
  | Number of basis functions :         3840
  | Number of electrons       :       1344.0
  | Number of spins           :            1
  | Number of k-points        :            2
  | Number of states          :          948
  | Solver                    :         ELPA
  | Parallel mode             :   MULTI_PROC
  | Matrix format             :  BLACS_DENSE
  | Matrix sparsity           :        0.204
  |------------------------------------------
  | ELSI Project (c)  elsi-interchange.org
  |------------------------------------------
  Removing unitary transformations (pure translations, rotations) from forces on atoms.
  Atomic forces before filtering:
  | Net force on center of mass :  -0.205204E-03 -0.167420E-02  0.277011E-02 eV/A
  Atomic forces after filtering:
  | Net force on center of mass :   0.129344E-14 -0.356812E-15 -0.825128E-15 eV/A

  Energy and forces in a compact form:
  | Total energy uncorrected      :         -0.859138677350863E+06 eV
  | Total energy corrected        :         -0.859138677350863E+06 eV  <-- do not rely on this value for anything but (periodic) metals
  | Electronic free energy        :         -0.859138677350863E+06 eV
  Total atomic forces (unitary forces cleaned) [eV/Ang]:
  |   1         -0.156951344470099E+00         -0.556012675499113E-01         -0.286184371046156E-01
  |   2          0.549637715135424E-01          0.537998418571953E-01          0.175156308587950E-01
  |   3         -0.853778422460240E-02          0.300692806507294E-01          0.293068478117269E-01
  |   4         -0.719849963646461E-01         -0.477325280038596E-01         -0.201067485399361E-01
  |   5          0.363482911461394E-01         -0.149957599256360E+00         -0.383136979114786E-01
  |   6          0.256501386401060E+00         -0.167410510441269E+00          0.276322080030262E+00
  |   7         -0.179143513299477E+00         -0.142897252225986E-02         -0.261962876187760E+00
  |   8          0.964720919247453E-01         -0.377272642658299E-01         -0.458082235428715E-01
  |   9         -0.133347675429058E-01         -0.109264916482100E-01          0.602902583017684E-02
  |  10          0.169080405147844E+00         -0.637099952077206E-02         -0.438769474133463E-01
  |  11         -0.627314597943019E-01         -0.353262069420980E-02         -0.196710773732883E+00
  |  12          0.462800016688567E-02          0.317733766823647E-01          0.951864100080139E-01
  |  13          0.116074609238242E+00         -0.478127205862530E-01         -0.711028236195652E-01
  |  14         -0.457799790250190E-01          0.914406185364912E-01          0.994588757758099E-01
  |  15          0.656410028178800E-01         -0.218509530634504E+00         -0.158143991468523E+00
  |  16         -0.228043132413668E+00          0.126903358717606E+00         -0.495371218653713E-01
  |  17         -0.224978397909193E-01          0.142272529869075E-01          0.871431484848217E-01
  |  18          0.114356446538625E+00         -0.738509760798337E-01          0.278814616491105E+00
  |  19         -0.109187216467106E+00         -0.521112502467718E-01         -0.949195256901260E-01
  |  20          0.151215671285134E+00          0.686780044987092E-02          0.198433874324217E+00
  |  21         -0.692641830499075E-01         -0.564582149091956E-01         -0.385846862459751E-02
  |  22         -0.180309152276214E+00          0.558296981899577E-01         -0.199866896836274E+00
  |  23         -0.760891010060556E-01          0.107739884828750E-01         -0.225683906433069E-01
  |  24          0.204972567247727E+00          0.241645761638773E-01          0.439744103309574E-01
  |  25         -0.458468558115253E+00         -0.371189187809000E-01         -0.432204126994911E+00
  |  26         -0.497580490695235E+00         -0.136696189763408E+00          0.310230663420091E+00
  |  27          0.658386954961979E+00          0.756582603213859E+00         -0.517218031684959E+00
  |  28         -0.734477781702505E+00          0.542172795160817E+00         -0.778708528175990E-01
  |  29         -0.310085695268418E+00         -0.279122976634848E-01         -0.363098119279265E+00
  |  30         -0.790243156963920E+00         -0.540925923102255E+00          0.112428773608581E-01
  |  31          0.706172341669797E+00          0.604345981652941E+00         -0.560084467554850E+00
  |  32         -0.267674212937585E+00         -0.352452179920299E+00          0.293640407173332E+00
  |  33         -0.161506504217014E+01         -0.130089305979945E+01         -0.441020316357833E+00
  |  34          0.119898152435639E+01          0.433148830202483E+00          0.790854755641216E+00
  |  35          0.635080612295971E+00          0.352527894216713E+00         -0.229263956992624E+00
  |  36         -0.842633815633251E-01          0.135468964811922E+01          0.154345089997251E+01
  |  37          0.719668320065592E+00          0.563914099350201E-01         -0.105582020135097E+01
  |  38         -0.581868440123821E+00          0.596864117358001E+00          0.202509082054853E+00
  |  39          0.164960699396005E-02         -0.134615508729738E+01         -0.104935347026817E+01
  |  40          0.245589403612565E+00         -0.747093083226243E+00         -0.147999952104617E+01
  |  41          0.694988821094731E+00          0.138702685686854E+01          0.405224901085977E+00
  |  42          0.503781613203222E-01         -0.543248477400342E+00         -0.529937110894608E-01
  |  43         -0.959034522353693E+00          0.344917714296670E+00          0.751250254522838E+00
  |  44          0.247054704297103E+00         -0.201199388749860E+00         -0.206125753947356E-01
  |  45          0.720570172884186E+00          0.101154691966722E+01          0.620812566879886E+00
  |  46         -0.411924481964459E+00         -0.316509449547164E+00         -0.784133216660888E+00
  |  47         -0.685629566908086E+00          0.274740972208044E+00          0.549818292824343E+00
  |  48         -0.361864911753228E+00         -0.952396593339495E+00         -0.684524303104196E+00
  |  49         -0.131910067206997E-02         -0.246443463437435E+00          0.589079159683171E-02
  |  50         -0.391302345866806E+00          0.843705901825623E-01         -0.157429150215162E+00
  |  51         -0.269022584077323E+00         -0.113501334123955E+01         -0.213919044633234E-01
  |  52          0.263734316588392E+00          0.610791987433936E+00          0.111827834772198E+01
  |  53          0.715564358115310E-01         -0.205759297485086E+00          0.349035124231037E+00
  |  54          0.314556262087965E+00          0.108297035772933E+01          0.144765531820180E+01
  |  55          0.606174941661673E+00         -0.458293446764034E+00         -0.623135319139677E+00
  |  56         -0.361189852685215E+00          0.527575255237877E+00          0.522425992186490E+00
  |  57          0.348138903489211E+00         -0.134864569674128E+01         -0.797905066612941E+00
  |  58          0.757286648153447E+00         -0.650016782358391E-01         -0.589402602729166E+00
  |  59          0.618769108789883E-01          0.690774943097629E+00          0.672158991837920E+00
  |  60          0.809416697995820E+00          0.140893235141056E+00         -0.387525011331170E+00
  |  61         -0.901699027863796E+00         -0.136389522800835E+00         -0.303375476152326E+00
  |  62          0.588016131289372E+00         -0.850463004296062E+00         -0.346999221288478E+00
  |  63          0.508586847483614E+00          0.101032957945715E+01          0.790196417596450E+00
  |  64         -0.510716362837720E+00          0.464981353145760E+00         -0.151388970017046E+00
  |  65         -0.506435126297418E+00          0.411057598080303E+00          0.106008932010280E+01
  |  66         -0.249695145801905E+00         -0.683485018228372E+00         -0.962837260852271E+00
  |  67          0.900717604663224E-02         -0.219545059173236E+00         -0.368022357217908E+00
  |  68         -0.726996576831333E+00         -0.208036166628140E+00          0.218987910006811E+00
  |  69         -0.176656671876497E+01         -0.149022621480625E+01         -0.476331079469883E+00
  |  70          0.171499737882783E+01          0.116449964814650E+01          0.118246674275063E+01
  |  71          0.599339560697049E+00          0.569623764404311E+00         -0.183010830962100E+00
  |  72          0.355004459115530E+00          0.143924229244742E+01          0.165545559982114E+01
  |  73          0.930430821778355E+00         -0.149883204848214E+00         -0.896840731280756E+00
  |  74         -0.560338713842986E+00          0.796897592392445E+00          0.555235971554635E+00
  |  75         -0.775830520452126E+00         -0.114704502841609E+01         -0.739744843184982E+00
  |  76          0.115339860887628E+00         -0.566729901032129E+00         -0.113891782459528E+01
  |  77          0.368386102532897E+00          0.137428402117858E+01          0.735736751213208E+00
  |  78          0.257607166372242E+00         -0.564738772502431E+00         -0.622621055286742E-01
  |  79         -0.100930804900927E+01         -0.380075680509967E+00          0.550712496920240E+00
  |  80         -0.660816943346105E+00          0.351887737721903E+00          0.117515961467048E+00
  |  81          0.924061988039169E+00          0.640111530036682E+00          0.859057224105448E-02
  |  82          0.862062783696002E+00         -0.632726824069850E+00         -0.751660177185879E+00
  |  83         -0.814795853679411E+00          0.367918256026579E-01          0.337418080766418E+00
  |  84         -0.175643494220992E+00         -0.717114690580133E+00         -0.739659972776508E+00
  |  85         -0.326529210987643E-01         -0.172342441379456E+00         -0.698330876437934E-01
  |  86         -0.645076575890536E+00         -0.229336596306347E+00         -0.181005299799494E+00
  |  87         -0.548202508263057E+00         -0.129967391128575E+01         -0.248585306492974E+00
  |  88          0.748918837261100E+00          0.417116134423387E+00          0.609998479037154E+00
  |  89          0.472101380205569E+00          0.200159622290808E+00         -0.740735472074294E-01
  |  90          0.220191484430402E+00          0.126093720309624E+01          0.132443170088817E+01
  |  91          0.707434975758005E+00         -0.529786171928223E+00         -0.507163465608931E+00
  |  92          0.378767369889822E+00         -0.145537288454258E+00          0.467116662019895E+00
  |  93          0.541957488258071E+00         -0.112599512150410E+01         -0.586401805316961E+00
  |  94          0.333492762013856E+00         -0.273757430833876E+00         -0.113368631897468E+01
  |  95          0.950999765904478E+00          0.126271319590799E+01          0.300312951328420E+00
  |  96         -0.206325138708552E+00         -0.109493972273845E+01         -0.500067330002068E+00
  |  97         -0.100311225216092E+01         -0.248110817940964E-01          0.615702269483121E+00
  |  98         -0.522975496516318E+00          0.248741376103214E+00         -0.233992437515077E+00
  |  99          0.476862256834096E+00          0.961766544409211E+00          0.734018135275991E+00
  | 100          0.725870661412652E+00         -0.425803883289443E+00         -0.379937761538651E+00
  | 101         -0.516919205040634E+00          0.518658332516216E+00          0.717743161460230E+00
  | 102         -0.539457121725585E+00         -0.743679364362077E+00         -0.758391337804281E+00
  | 103         -0.179858824932287E+00         -0.927947044402745E-01          0.488514107035899E+00
  | 104         -0.312662069551135E+00          0.368124069260257E+00          0.157661919058001E+00

  ------------------------------------ 
  Start decomposition of the XC Energy 
  ------------------------------------ 
  X and C from original XC functional choice 
  Hartree-Fock Energy :          0.000000000 Ha              0.000000000 eV
  X Energy            :      -2016.655862406 Ha         -54875.998076112 eV
  C Energy            :        -51.740107204 Ha          -1407.919951202 eV
  Total XC Energy     :      -2068.395969610 Ha         -56283.918027313 eV
  ------------------------------------ 
  LDA X and C from self-consistent density 
  X Energy LDA        :      -1868.372861585 Ha         -50841.012325951 eV
  C Energy LDA        :       -103.076053300 Ha          -2804.842119088 eV
  ------------------------------------ 
  End decomposition of the XC Energy 
  ------------------------------------ 

------------------------------------------------------------

------------------------------------------------------------------------------
  Final output of selected total energy values:

  The following output summarizes some interesting total energy values
  at the end of a run (AFTER all relaxation, molecular dynamics, etc.).

  | Total energy of the DFT / Hartree-Fock s.c.f. calculation      :        -859138.677350863 eV
  | Final zero-broadening corrected energy (caution - metals only) :        -859138.677350863 eV
  | For reference only, the value of 1 Hartree used in FHI-aims is :             27.211384500 eV

  Before relying on these values, please be sure to understand exactly which
  total energy value is referred to by a given number. Different objects may
  all carry the same name 'total energy'. Definitions:

  Total energy of the DFT / Hartree-Fock s.c.f. calculation:
  | Note that this energy does not include ANY quantities calculated after the
  | s.c.f. cycle, in particular not ANY RPA, MP2, etc. many-body perturbation terms.

  Final zero-broadening corrected energy:
  | For metallic systems only, a broadening of the occupation numbers at the Fermi
  | level can be extrapolated back to zero broadening by an electron-gas inspired
  | formula. For all systems that are not real metals, this value can be
  | meaningless and should be avoided.

------------------------------------------------------------------------------
  Methods described in the following list of references were used in this FHI-aims run.
  If you publish the results, please make sure to cite these reference if they apply.
  FHI-aims is an academic code, and for our developers (often, Ph.D. students
  and postdocs), scientific credit in the community is essential.
  Thank you for helping us!

  For any use of FHI-aims, please cite:

    Volker Blum, Ralf Gehrke, Felix Hanke, Paula Havu, Ville Havu,
    Xinguo Ren, Karsten Reuter, and Matthias Scheffler
    'Ab initio molecular simulations with numeric atom-centered orbitals'
    Computer Physics Communications 180, 2175-2196 (2009)
    http://dx.doi.org/10.1016/j.cpc.2009.06.022


  The provided symmetry information was generated with SPGlib:

    Atsushi Togo, Yusuke Seto, Dimitar Pashov
    SPGlib 1.7.3 obtained from http://spglib.sourceforge.net
    Copyright (C) 2008 Atsushi Togo


  The scalable eigensolver library ELPA was used in your run.
  ELPA is essential especially for large systems on hundreds or thousands of CPUs.
  For ELPA, please cite:

    Andreas Marek, Volker Blum, Rainer Johanni, Ville Havu, Bruno Lang,
    Thomas Auckenthaler, Alexander Heinecke, Hans-Joachim Bungartz, and Hermann Lederer,
    'The ELPA Library - Scalable Parallel Eigenvalue Solutions
    for Electronic Structure Theory and Computational Science'
    The Journal of Physics: Condensed Matter 26, 213201 (2014).
    http://dx.doi.org/10.1088/0953-8984/26/21/213201


  The ELSI infrastructure was used in your run to solve the Kohn-Sham electronic structure.
  Please check out http://elsi-interchange.org to learn more.
  If scalability is important for your project, please acknowledge ELSI by citing:

    V. W-z. Yu, F. Corsetti, A. Garcia, W. P. Huhn, M. Jacquelin, W. Jia,
    B. Lange, L. Lin, J. Lu, W. Mi, A. Seifitokaldani, A. Vazquez-Mayagoitia,
    C. Yang, H. Yang, and V. Blum
    'ELSI: A unified software interface for Kohn-Sham electronic structure solvers'
    Computer Physics Communications 222, 267-285 (2018).
    http://dx.doi.org/10.1016/j.cpc.2017.09.007


  For the real-space grid partitioning and parallelization used in this calculation, please cite:

    Ville Havu, Volker Blum, Paula Havu, and Matthias Scheffler,
    'Efficient O(N) integration for all-electron electronic structure calculation'
    'using numerically tabulated basis functions'
    Journal of Computational Physics 228, 8367-8379 (2009).
    http://dx.doi.org/10.1016/j.jcp.2009.08.008

  Of course, there are many other important community references, e.g., those cited in the
  above references. Our list is limited to references that describe implementations in the
  FHI-aims code. The reason is purely practical (length of this list) - please credit others as well.

------------------------------------------------------------
          Leaving FHI-aims.
          Date     :  20220704, Time     :  073538.176

          Computational steps:
          | Number of self-consistency cycles          :           23
          | Number of SCF (re)initializations          :            1

          Detailed time accounting                     :  max(cpu_time)    wall_clock(cpu1)
          | Total time                                 :     2951.685 s        2951.941 s
          | Preparation time                           :        0.465 s           0.466 s
          | Boundary condition initalization           :        0.836 s           0.836 s
          | Grid partitioning                          :        3.985 s           3.984 s
          | Preloading free-atom quantities on grid    :        0.035 s           0.035 s
          | Free-atom superposition energy             :        1.445 s           1.445 s
          | Total time for integrations                :      608.742 s         608.723 s
          | Total time for solution of K.-S. equations :       59.017 s          59.015 s
          | Total time for density & force components  :     1612.416 s        1612.355 s
          | Total time for mixing & preconditioning    :      239.847 s         240.073 s
          | Total time for Hartree multipole update    :        0.719 s           0.722 s
          | Total time for Hartree multipole sum       :      415.033 s         415.028 s
          | Total time for total energy evaluation     :        0.011 s           0.016 s

          Partial memory accounting:
          | Residual value for overall tracked memory usage across tasks :           0.000 MB (should be 0.000 MB)
          | Peak values for overall tracked memory usage (after allocating temp_ham_ovlp):
          |   Minimum:      436.346 MB (on task  1)
          |   Maximum:      436.346 MB (on task  1)
          |   Average:      436.346 MB
          | Largest tracked array allocation (overlap_matrix):
          |   Minimum:      111.536 MB (on task  1)
          |   Maximum:      111.536 MB (on task  1)
          |   Average:      111.536 MB
          Note:  These values currently only include a subset of arrays which are explicitly tracked.
          The "true" memory usage will be greater.

          Have a nice day.
------------------------------------------------------------
