  MPI-parallelism will be employed.
------------------------------------------------------------
          Invoking FHI-aims ...
          Version 171221_1
          Compiled on 2020/09/23 at 19:46:43 on host login.service.

          When using FHI-aims, please cite the following reference:

          Volker Blum, Ralf Gehrke, Felix Hanke, Paula Havu,
          Ville Havu, Xinguo Ren, Karsten Reuter, and Matthias Scheffler,
          'Ab Initio Molecular Simulations with Numeric Atom-Centered Orbitals',
          Computer Physics Communications 180, 2175-2196 (2009)

          For any questions about FHI-aims, please visit the aimsclub website
          with its forums and wiki. Contributions to both the forums and the
          wiki are warmly encouraged - they are for you, and everyone is welcome there.

------------------------------------------------------------



  Date     :  20220704, Time     :  082254.247
  Time zero on CPU 1             :   0.838680000000000E-01  s.
  Internal wall clock time zero  :           426154974.247  s.

  FHI-aims created a unique identifier for this run for later identification
  aims_uuid : 479E91CD-2448-45AB-A48E-6FC827DE4207

  Using       20 parallel tasks.
  Task        0 on host node042 reporting.
  Task        1 on host node042 reporting.
  Task        2 on host node042 reporting.
  Task        3 on host node042 reporting.
  Task        4 on host node042 reporting.
  Task        5 on host node042 reporting.
  Task        6 on host node042 reporting.
  Task        7 on host node042 reporting.
  Task        8 on host node042 reporting.
  Task        9 on host node042 reporting.
  Task       10 on host node042 reporting.
  Task       11 on host node042 reporting.
  Task       12 on host node042 reporting.
  Task       13 on host node042 reporting.
  Task       14 on host node042 reporting.
  Task       15 on host node042 reporting.
  Task       16 on host node042 reporting.
  Task       17 on host node042 reporting.
  Task       18 on host node042 reporting.
  Task       19 on host node042 reporting.

  Performing system and environment tests:
  *** Environment variable OMP_NUM_THREADS is not set
  *** For performance reasons you might want to set it to 1
  | Maximum stacksize for task 0: unlimited
  | Maximum stacksize for task 1: unlimited
  | Maximum stacksize for task 2: unlimited
  | Maximum stacksize for task 3: unlimited
  | Maximum stacksize for task 4: unlimited
  | Maximum stacksize for task 5: unlimited
  | Maximum stacksize for task 6: unlimited
  | Maximum stacksize for task 7: unlimited
  | Maximum stacksize for task 8: unlimited
  | Maximum stacksize for task 9: unlimited
  | Maximum stacksize for task 10: unlimited
  | Maximum stacksize for task 11: unlimited
  | Maximum stacksize for task 12: unlimited
  | Maximum stacksize for task 13: unlimited
  | Maximum stacksize for task 14: unlimited
  | Maximum stacksize for task 15: unlimited
  | Maximum stacksize for task 16: unlimited
  | Maximum stacksize for task 17: unlimited
  | Maximum stacksize for task 18: unlimited
  | Maximum stacksize for task 19: unlimited
  | Current stacksize for task 0: unlimited
  | Current stacksize for task 1: unlimited
  | Current stacksize for task 2: unlimited
  | Current stacksize for task 3: unlimited
  | Current stacksize for task 4: unlimited
  | Current stacksize for task 5: unlimited
  | Current stacksize for task 6: unlimited
  | Current stacksize for task 7: unlimited
  | Current stacksize for task 8: unlimited
  | Current stacksize for task 9: unlimited
  | Current stacksize for task 10: unlimited
  | Current stacksize for task 11: unlimited
  | Current stacksize for task 12: unlimited
  | Current stacksize for task 13: unlimited
  | Current stacksize for task 14: unlimited
  | Current stacksize for task 15: unlimited
  | Current stacksize for task 16: unlimited
  | Current stacksize for task 17: unlimited
  | Current stacksize for task 18: unlimited
  | Current stacksize for task 19: unlimited
  | Checking for scalapack...
  | Testing pdtran()...
  | All pdtran() tests passed.

  Obtaining array dimensions for all initial allocations:
  
  -----------------------------------------------------------------------
  Parsing control.in (first pass over file, find array dimensions only).
  The contents of control.in will be repeated verbatim below
  unless switched off by setting 'verbatim_writeout .false.' .
  in the first line of control.in .
  -----------------------------------------------------------------------
  
  #===============================================================================
  # FHI-aims file: ./control.in
  # Created using the Atomic Simulation Environment (ASE)
  # Wed Mar 24 12:41:28 2021
  #===============================================================================
  xc                                 pbe
  sc_accuracy_etot                   1e-06
  sc_accuracy_eev                    0.001
  sc_accuracy_rho                    1e-06
  sc_accuracy_forces                 0.0001
  friction_temperature               300  # default 300
  
    k_grid                           1  1  2
  
  
  
  ################################################################################
  #
  #  FHI-aims code project
  # Volker Blum, Fritz Haber Institute Berlin, 2009
  #
  #  Suggested "tight" defaults for Li atom (to be pasted into control.in file)
  #
  #  2016/03/22: Increased cutoff radius to 5.0 AA (Xinguo Ren, Aug 15, 2015)
  #
  ################################################################################
    species        Li
  #     global species definitions
      nucleus             3
      mass                6.941
  #
      l_hartree           6
  #
      cut_pot             5.0  2.0  1.0
      basis_dep_cutoff    1e-4
  #
      radial_base         29 7.0
      radial_multiplier   2
      angular_grids       specified
        division   0.4484  110
        division   0.5659  194
        division   0.6315  302
        division   0.6662  434
  #      division   0.8186  590
  #      division   0.9037  770
  #      division   6.2760  974
  #      outer_grid   974
        outer_grid  434
  ################################################################################
  #
  #  Definition of "minimal" basis
  #
  ################################################################################
  #     valence basis states
      valence      2  s   1.
  #     ion occupancy
      ion_occ      1  s   2.
  ################################################################################
  #
  #  Suggested additional basis functions. For production calculations,
  #  uncomment them one after another (the most important basis functions are
  #  listed first).
  #
  #  Constructed for dimers: 1.80 A, 2.25 A, 2.75 A, 3.50 A, 4.50 A
  #
  ################################################################################
  #  "First tier" - improvements: -189.23 meV to -6.35 meV
       hydro 2 p 1.6
       hydro 2 s 2
       hydro 3 d 2.6
  #  "Second tier" - improvements: -4.69 meV to -0.41 meV
       hydro 3 p 4.6
       hydro 2 p 1.8
       hydro 3 s 6.2
       hydro 4 d 4.7
       hydro 4 f 4.1
  #  "Third tier" - improvements: -0.20 meV to -0.15 meV
  #     hydro 4 d 0.95
  #     hydro 3 p 6.2
  #     hydro 3 s 1.7
  #  Further functions, listed for completeness
  #     VB: The following functions are only listed for completeness; test very
  #         carefully before any kind of production use. From the point of view
  #         of the basis construction, their main role is to fill up space,
  #         and they are solely determined by the location of the cutoff potential.
  #     hydro 3 p 0.1  # -0.15 meV
  #     hydro 4 d 5    # -0.12 meV
  #     hydro 4 f 0.1  # -0.14 meV
  #     hydro 5 g 0.1  # -0.06 meV
  
  
  ################################################################################
  #
  # For methods that use the localized form of the "resolution of identity" for
  # the two-electron Coulomb operator (RI_method LVL), particularly Hartree-Fock and
  # hybrid density functional calculations, the highest accuracy can be obtained by
  # uncommenting the line beginning with "for_aux"  below, thus adding an extra g radial
  # function to the construction of the product basis set for the expansion.
  # See Ref. New J. Phys. 17, 093020 (2015) for more information, particularly Figs. 1 and 6.
  #
  ################################################################################
  #
  # for_aux hydro 5 g 6.0
  ################################################################################
  #
  #  FHI-aims code project
  # Volker Blum, Fritz Haber Institute Berlin, 2010
  #
  #  Suggested "tight" defaults for P atom (to be pasted into control.in file)
  #
  #  Revised Jan 04, 2011, following tests (SiC) done by Lydia Nemec:
  #     d function of tier 2 now enabled by default.
  #
  ################################################################################
    species        P
  #     global species definitions
      nucleus             15
      mass                30.973762
  #
      l_hartree           6
  #
      cut_pot             4.0          2.0  1.0
      basis_dep_cutoff    1e-4
  #
      radial_base         43 7.0
      radial_multiplier   2
      angular_grids       specified
        division   0.2995   50
        division   0.5998  110
        division   0.9240  194
        division   1.0921  302
        division   1.2863  434
  #      division   1.3165  590
  #      division   1.4113  770
  #      division   1.5128  974
  #      division   2.4980 1202
        outer_grid  434
  ################################################################################
  #
  #  Definition of "minimal" basis
  #
  ################################################################################
  #     valence basis states
      valence      3  s   2.
      valence      3  p   3.
  #     ion occupancy
      ion_occ      3  s   1.
      ion_occ      3  p   2.
  ################################################################################
  #
  #  Suggested additional basis functions. For production calculations,
  #  uncomment them one after another (the most important basis functions are
  #  listed first).
  #
  #  Constructed for dimers: 1.625 A, 1.875 A, 2.5 A, 3.25 A, 4.0 A
  #
  ################################################################################
  #  "First tier" - improvements: -726.20 meV to -35.91 meV
       ionic 3 d auto
       ionic 3 p auto
       hydro 4 f 6.2
       hydro 5 g 8.6
       ionic 3 s auto
  #  "Second tier" - improvements: -16.02 meV to -1.71 meV
       hydro 4 d 6.2
  #     hydro 4 p 9.2
  #     hydro 5 f 9.8
  #     hydro 1 s 0.7
  #     hydro 5 g 13.2
  #  "Third tier" - improvements: -1.82 meV to -0.20 meV
  #     hydro 3 p 2.5
  #     hydro 4 d 6.4
  #     hydro 5 f 11.2
  #     hydro 2 s 1.5
  #  "Fourth tier" - improvements: -0.91 meV to -0.17 meV
  #     hydro 3 d 16.8
  #     hydro 5 g 18
  #     hydro 4 p 4.5
  #     hydro 3 s 2.1
  #  Further basis functions that fell out of the optimization - < -0.09 meV
  #     hydro 4 p 10.4
  #     hydro 4 d 17.6
  #     hydro 4 s 11.2
  ################################################################################
  #
  # For methods that use the localized form of the "resolution of identity" for
  # the two-electron Coulomb operator (RI_method LVL), particularly Hartree-Fock and
  # hybrid density functional calculations, the highest accuracy can be obtained by
  # uncommenting the line beginning with "for_aux"  below, thus adding an extra g radial
  # function to the construction of the product basis set for the expansion.
  # See Ref. New J. Phys. 17, 093020 (2015) for more information, particularly Figs. 1 and 6.
  #
  ################################################################################
  #
  # for_aux hydro 5 g 6.0
  ################################################################################
  #
  #  FHI-aims code project
  # Volker Blum, Fritz Haber Institute Berlin, 2009
  #
  #  Suggested "tight" defaults for S atom (to be pasted into control.in file)
  #
  #  Revised Jan 04, 2011, following tests (SiC) done by Lydia Nemec:
  #     d and g functions of tier 2 now enabled by default.
  #
  ################################################################################
    species        S
  #     global species definitions
      nucleus             16
      mass                32.065
  #
      l_hartree           6
  #
      cut_pot             4.0          2.0  1.0
      basis_dep_cutoff    1e-4
  #
      radial_base         44 7.0
      radial_multiplier   2
      angular_grids       specified
        division   0.4665  110
        division   0.5810  194
        division   0.7139  302
        division   0.8274  434
  #      division   0.9105  590
  #      division   1.0975  770
  #      division   1.2028  974
  #      outer_grid  974
        outer_grid  434
  ################################################################################
  #
  #  Definition of "minimal" basis
  #
  ################################################################################
  #     valence basis states
      valence      3  s   2.
      valence      3  p   4.
  #     ion occupancy
      ion_occ      3  s   1.
      ion_occ      3  p   3.
  ################################################################################
  #
  #  Suggested additional basis functions. For production calculations,
  #  uncomment them one after another (the most important basis functions are
  #  listed first).
  #
  #  Constructed for dimers: 1.6 A, 1.9 A, 2.5 A, 3.25 A, 4.0 A
  #
  ################################################################################
  #  "First tier" - improvements: -652.81 meV to -45.53 meV
       ionic 3 d auto
       hydro 2 p 1.8
       hydro 4 f 7
       ionic 3 s auto
  #  "Second tier" - improvements: -30.20 meV to -1.74 meV
       hydro 4 d 6.2
       hydro 5 g 10.8
  #     hydro 4 p 4.9
  #     hydro 5 f 10
  #     hydro 1 s 0.8
  #  "Third tier" - improvements: -1.04 meV to -0.20 meV
  #     hydro 3 d 3.9
  #     hydro 3 d 2.7
  #     hydro 5 g 12
  #     hydro 4 p 10.4
  #     hydro 5 f 12.4
  #     hydro 2 s 1.9
  #  "Fourth tier" - improvements: -0.35 meV to -0.06 meV
  #     hydro 4 d 10.4
  #     hydro 4 p 7.2
  #     hydro 4 d 10
  #     hydro 5 g 19.2
  #     hydro 4 s 12
  
  ################################################################################
  #
  # For methods that use the localized form of the "resolution of identity" for
  # the two-electron Coulomb operator (RI_method LVL), particularly Hartree-Fock and
  # hybrid density functional calculations, the highest accuracy can be obtained by
  # uncommenting the line beginning with "for_aux"  below, thus adding an extra g radial
  # function to the construction of the product basis set for the expansion.
  # See Ref. New J. Phys. 17, 093020 (2015) for more information, particularly Figs. 1 and 6.
  #
  ################################################################################
  #
  # for_aux hydro 5 g 6.0
  ################################################################################
  #
  #  FHI-aims code project
  # Volker Blum, Fritz Haber Institute Berlin, 2009
  #
  #  Suggested "tight" defaults for Cl atom (to be pasted into control.in file)
  #
  #  Revised Jan 04, 2011, following tests (SiC) done by Lydia Nemec:
  #     d function of tier 2 now enabled by default.
  #
  ################################################################################
    species        Cl
  #     global species definitions
      nucleus             17
      mass                35.453
  #
      l_hartree           6
  #
      cut_pot             4.0          2.0  1.0
      basis_dep_cutoff    1e-4
  #
      radial_base         45 7.0
      radial_multiplier   2
      angular_grids       specified
        division   0.4412  110
        division   0.5489  194
        division   0.6734  302
        division   0.7794  434
  #      division   0.9402  590
  #      division   1.0779  770
  #      division   1.1792  974
  #      outer_grid  974
        outer_grid  434
  ################################################################################
  #
  #  Definition of "minimal" basis
  #
  ################################################################################
  #     valence basis states
      valence      3  s   2.
      valence      3  p   5.
  #     ion occupancy
      ion_occ      3  s   1.
      ion_occ      3  p   4.
  ################################################################################
  #
  #  Suggested additional basis functions. For production calculations,
  #  uncomment them one after another (the most important basis functions are
  #  listed first).
  #
  #  Constructed for dimers: 1.65 A, 2.0 A, 2.5 A, 3.25 A, 4.0 A
  #
  ################################################################################
  #  "First tier" - improvements: -429.57 meV to -15.03 meV
       ionic 3 d auto
       hydro 2 p 1.9
       hydro 4 f 7.4
       ionic 3 s auto
       hydro 5 g 10.4
  #  "Second tier" - improvements: -7.84 meV to -0.48 meV
       hydro 3 d 3.3
  #     hydro 5 f 9.8
  #     hydro 1 s 0.75
  #     hydro 5 g 11.2
  #     hydro 4 p 10.4
  #  "Third tier" - improvements: -1.00 meV to -0.12 meV
  #     hydro 4 d 12.8
  #     hydro 4 f 4.6
  #     hydro 4 d 10.8
  #     hydro 2 s 1.8
  #     hydro 3 p 3
  #  Further functions that fell out - improvements: -0.10 meV and below
  #     hydro 5 f 14.4
  #     hydro 4 s 12.8
  #     hydro 3 d 11.6
  #     hydro 4 s 4.1
  ################################################################################
  #
  # For methods that use the localized form of the "resolution of identity" for
  # the two-electron Coulomb operator (RI_method LVL), particularly Hartree-Fock and
  # hybrid density functional calculations, the highest accuracy can be obtained by
  # uncommenting the line beginning with "for_aux"  below, thus adding an extra g radial
  # function to the construction of the product basis set for the expansion.
  # See Ref. New J. Phys. 17, 093020 (2015) for more information, particularly Figs. 1 and 6.
  #
  ################################################################################
  #
  # for_aux hydro 5 g 6.0
  
  -----------------------------------------------------------------------
  Completed first pass over input file control.in .
  -----------------------------------------------------------------------
  
  
  -----------------------------------------------------------------------
  Parsing geometry.in (first pass over file, find array dimensions only).
  The contents of geometry.in will be repeated verbatim below
  unless switched off by setting 'verbatim_writeout .false.' .
  in the first line of geometry.in .
  -----------------------------------------------------------------------
  
  #=======================================================
  # FHI-aims file: ./data/test_rep/geometry.in.10
  # Created using the Atomic Simulation Environment (ASE)
  # Mon Jul  4 10:21:46 2022
  #=======================================================
  lattice_vector 20.7904778480700010 0.0000000000000000 0.0000000000000000
  lattice_vector 0.0000000000000000 17.2591286659049992 0.0000000000000000
  lattice_vector 0.0000000000000000 0.0000000000000000 7.9791327238349998
  atom 2.8695372531000003 2.5543389879000000 4.9450871872499995 Li
  atom 1.8561607333500001 8.6606822126999994 4.4884457362500001 Li
  atom 9.5176868419499989 3.9036088055999998 3.0070658372999999 Li
  atom 7.2613096048500001 1.4817039184500000 6.7247062197000007 Li
  atom 8.5458179383500017 0.9844588078500001 3.2589243928500000 Li
  atom 7.1000395599000008 6.3089193436500004 3.6734242293000001 Li
  atom 13.3022833177500015 2.5476566524500002 2.7501134398499998 Li
  atom 12.6835660675500002 8.9864853498000006 4.6470884659499996 Li
  atom 20.4053998323000023 4.8867656995499997 4.5158361097499995 Li
  atom 14.7875906062499993 3.0871152679500002 6.6895180180500002 Li
  atom 18.9181333540499992 1.1015440212000001 4.8664782610500001 Li
  atom 16.8667603292999999 7.6800719257500001 5.6708250753000007 Li
  atom 3.6591042537000003 11.7281989986000017 4.8819231562500001 Li
  atom 1.4401484979000001 17.1921319709999985 4.5595436166000001 Li
  atom 9.6770317759500006 13.1078262105000007 4.2901271048999998 Li
  atom 6.9773027194499999 9.2904754172999997 5.0185026339000007 Li
  atom 8.7894984838500001 9.6650318541000004 2.3535767650500001 Li
  atom 6.9350227653000003 15.2850109776000007 4.8713659344000000 Li
  atom 13.2102993078000015 11.6969103510000014 2.7690965116499999 Li
  atom 12.0341895471000004 17.1562613859000024 3.6610157598000002 Li
  atom 0.1751223894000000 13.5388410906000001 4.6844829465000002 Li
  atom 17.1696899377500003 10.9672866597000009 6.6613372076999999 Li
  atom 19.3961954203500007 9.3204586146000015 3.4335442060500001 Li
  atom 17.4729987442499990 15.8543882374499994 5.5353613402500006 Li
  atom 9.6383331366000018 7.5748406380500004 4.7457108362999998 P
  atom 4.9533348017999996 0.6814764390000000 3.5779640788500000 P
  atom 20.2224814249500007 8.4018387358499993 6.7126894022999997 P
  atom 15.7165190563500019 1.2145497640500000 3.0872470755000001 P
  atom 9.7749509770500005 16.5118273771499986 5.5769505539999997 P
  atom 4.6798989888000007 8.9754317079000003 2.8990124509500004 P
  atom 20.2320716629500019 16.8746398978500025 6.8463197249999999 P
  atom 15.5970469126500006 9.4141815641999997 3.4838955144000003 P
  atom 1.2680854063500000 0.7749679906500000 7.1003022804000002 S
  atom 3.0743366850000000 0.4378201474500000 2.6473707655500003 S
  atom 5.7775705354500007 2.7487238898000004 2.4272418985500002 S
  atom 9.4949919666000007 6.5053172016000005 2.7792050107500001 S
  atom 8.2360627671000000 16.2810577849500007 6.9985476519000001 S
  atom 6.5539783753500007 8.1120995844000010 2.3691346140000000 S
  atom 11.4415886277000016 6.8326284484500004 5.7939932956500000 S
  atom 4.8175682982000003 1.3030385654999999 5.6803554916500003 S
  atom 0.3934569660000000 2.7862288608000001 2.3932747818000002 S
  atom 1.3386073984500002 4.8239373955500007 2.5077420217499999 S
  atom 7.5707717043000002 2.3174919505500000 1.3905629661000001 S
  atom 8.0961046382999999 3.1985608221000001 5.0211821268000003 S
  atom 11.7590033505000005 4.9034958409499998 4.6612116862500006 S
  atom 6.3649667760000002 4.0670702572500002 4.3557261741000008 S
  atom 3.2705078143500002 4.7536883897999997 3.5485443483000001 S
  atom 3.1415427099000004 6.0802432047000003 5.4343976231999997 S
  atom 0.4100882352000000 2.3265771280500003 4.4617402168500000 S
  atom 2.3758682787000005 4.9125018075000000 6.9894105518999998 S
  atom 10.4185125092999993 1.2702412936500000 5.3793381789000003 S
  atom 14.7701809584000010 1.0957472883000001 1.2000047104500000 S
  atom 16.7458023736500010 3.3384166536000000 3.1533357681000003 S
  atom 20.1075621347999984 7.3726119705000004 4.6820398233000002 S
  atom 18.4405112073000019 0.5676459169500000 7.3455339174000009 S
  atom 16.9879847150999979 7.9523099061000009 3.0698201457000001 S
  atom 20.3354774626500010 6.7723477794000004 0.1900736407500000 S
  atom 14.1911679661499992 1.3432395648000000 4.6646858957999999 S
  atom 10.8088844251500014 1.7804064726000000 0.3893120248500000 S
  atom 10.6296675344999993 3.8421947403000001 0.1175484523500000 S
  atom 18.1084168135500008 3.5269794903000000 4.7772831025500002 S
  atom 17.1156108553500026 4.2334903201500005 6.8005376806500006 S
  atom 0.1654190338500000 4.9722058764000003 7.0467656857500005 S
  atom 15.6404898646500001 5.5403579258999995 6.3804051549000000 S
  atom 12.7604441181000006 4.5958090520999999 7.9720730155500004 S
  atom 13.2096462445500009 6.0742328828999996 1.6815800956500000 S
  atom 10.9189844316000002 1.7643299562000001 2.5599024864000000 S
  atom 13.6230302733000013 5.1813738028500005 3.5067727443000001 S
  atom 1.1368971600000000 9.7141513780500013 6.9479131280999997 S
  atom 2.9293046149500004 8.0982915331500003 1.9893703336500002 S
  atom 4.9334994030000008 11.0748037722000010 2.1688318071000001 S
  atom 9.4010977168499998 15.3727302928499991 3.6608581012500006 S
  atom 7.9402480773000006 7.3252366477500006 6.0023864218500007 S
  atom 6.4224220840499999 16.6122586381499993 2.9303828274000003 S
  atom 11.8061899525500014 15.9660449371500004 6.2900847418500003 S
  atom 4.4701662652500005 9.3676132756500010 5.0539914117000002 S
  atom 1.3488573609000001 11.6688313224000009 2.1356425230000000 S
  atom 1.7263323640499999 13.8326354722500007 2.5543263921000001 S
  atom 7.0021178797500010 11.7591090749999996 2.4383543751000003 S
  atom 7.3686845904000009 11.9110927928999999 4.6729369659000008 S
  atom 11.6848081874999998 13.7785194340500006 5.8675518961500002 S
  atom 5.9199661878000001 13.1257887652500003 5.7008431021500003 S
  atom 3.6144106309500001 14.0460443151000014 3.7439609088000005 S
  atom 3.1849776063000004 15.3267308880000002 5.5915389043500001 S
  atom 0.9427601925000000 11.0268899128500006 4.1346737039999999 S
  atom 2.6908876102500003 14.1519288424500012 7.2410042019000000 S
  atom 10.2166205715000000 9.6720415806000002 4.7271175139999997 S
  atom 13.7752633872000008 9.2963628061500003 2.3770587130500003 S
  atom 16.3867204861500007 11.3756778355500003 2.7038208456000001 S
  atom 20.0327907391499984 15.8380819296000013 4.8106507333500002 S
  atom 18.3784578138000008 9.0980587225500003 7.5354511921500000 S
  atom 17.1645038481000007 17.0701221915000012 3.2812175938500001 S
  atom 20.2308299759999990 15.2625189507000005 0.3106723630500000 S
  atom 15.0641101915500002 9.6469396800000009 5.5914713704500008 S
  atom 10.9846761423000014 12.9161563691999994 0.8764320852000000 S
  atom 12.1722213249000006 14.7214357216499998 1.5457238769000001 S
  atom 18.4758199909500007 11.6215542429000003 2.9327175150000002 S
  atom 18.7377082347000012 12.2944828838999989 5.2451418988500000 S
  atom 0.5116315417500000 13.6735936774500004 7.2314228973000008 S
  atom 17.0669074611000013 13.3444430721000007 6.0081510888000000 S
  atom 14.2076184662999996 14.0457017494500001 1.8302474925000001 S
  atom 14.5680151553999995 14.7521400536999998 3.9382170208500002 S
  atom 10.7151109989000002 11.6162686584000010 2.4820469005500003 S
  atom 13.7668875729000018 13.2918927519000007 5.2041386165999999 S
  
  -----------------------------------------------------------------------
  Completed first pass over input file geometry.in .
  -----------------------------------------------------------------------
  

  Basic array size parameters:
  | Number of species                 :        4
  | Number of atoms                   :      104
  | Number of lattice vectors         :        3
  | Max. basis fn. angular momentum   :        4
  | Max. atomic/ionic basis occupied n:        3
  | Max. number of basis fn. types    :        3
  | Max. radial fns per species/type  :        8
  | Max. logarithmic grid size        :     1362
  | Max. radial integration grid size :       91
  | Max. angular integration grid size:      434
  | Max. angular grid division number :        8
  | Radial grid for Hartree potential :     1362
  | Number of spin channels           :        1

------------------------------------------------------------
          Reading file control.in.
------------------------------------------------------------
  XC: Using PBE gradient-corrected functionals.
  Convergence accuracy of total energy:  0.1000E-05
  Convergence accuracy of sum of eigenvalues:  0.1000E-02
  Convergence accuracy of self-consistent charge density:  0.1000E-05
  Convergence accuracy of forces:  0.1000E-03
  Friction is calculated at temperature of   0.3000E+03 K
  Found k-point grid:         1         1         2
 
  Reading configuration options for species Li                  .
  | Found nuclear charge :   3.0000
  | Found atomic mass :    6.94100000000000      amu
  | Found l_max for Hartree potential  :   6
  | Found cutoff potl. onset [A], width [A], scale factor :    5.00000    2.00000    1.00000
  | Threshold for basis-dependent cutoff potential is   0.100000E-03
  | Found data for basic radial integration grid :    29 points, outermost radius =    7.000 A
  | Found multiplier for basic radial grid :   2
  | Found angular grid specification: user-specified.
  | Specified grid contains     5 separate shells.
  | Check grid settings after all constraints further below.
  | Found free-atom valence shell :  2 s   1.000
  | Found free-ion valence shell :  1 s   2.000
  | Found hydrogenic basis function :  2 p   1.600
  | Found hydrogenic basis function :  2 s   2.000
  | Found hydrogenic basis function :  3 d   2.600
  | Found hydrogenic basis function :  3 p   4.600
  | Found hydrogenic basis function :  2 p   1.800
  | Found hydrogenic basis function :  3 s   6.200
  | Found hydrogenic basis function :  4 d   4.700
  | Found hydrogenic basis function :  4 f   4.100
  Species Li                  : Missing cutoff potential type.
  Defaulting to exp(1/x)/(1-x)^2 type cutoff potential.
  Species Li: No 'logarithmic' tag. Using default grid for free atom:
  | Default logarithmic grid data [bohr] : 0.1000E-03 0.1000E+03 0.1012E+01
  Species Li: On-site basis accuracy parameter (for Gram-Schmidt orthonormalisation) not specified.
  Using default value basis_acc =  0.1000000E-03.
  Species Li                  : Using default innermost maximum threshold i_radial=  2 for radial functions.
  Species Li                  : Default cutoff onset for free atom density etc. : 0.50000000E+01 AA.
  Species Li                  : Basic radial grid will be enhanced according to radial_multiplier =   2, to contain    59 grid points.
 
  Reading configuration options for species P                   .
  | Found nuclear charge :  15.0000
  | Found atomic mass :    30.9737620000000      amu
  | Found l_max for Hartree potential  :   6
  | Found cutoff potl. onset [A], width [A], scale factor :    4.00000    2.00000    1.00000
  | Threshold for basis-dependent cutoff potential is   0.100000E-03
  | Found data for basic radial integration grid :    43 points, outermost radius =    7.000 A
  | Found multiplier for basic radial grid :   2
  | Found angular grid specification: user-specified.
  | Specified grid contains     6 separate shells.
  | Check grid settings after all constraints further below.
  | Found free-atom valence shell :  3 s   2.000
  | Found free-atom valence shell :  3 p   3.000
  | Found free-ion valence shell :  3 s   1.000
  | Found free-ion valence shell :  3 p   2.000
  | Found ionic basis function :  3 d , default cutoff radius.
  | Found ionic basis function :  3 p , default cutoff radius.
  | Found hydrogenic basis function :  4 f   6.200
  | Found hydrogenic basis function :  5 g   8.600
  | Found ionic basis function :  3 s , default cutoff radius.
  | Found hydrogenic basis function :  4 d   6.200
  Species P                   : Missing cutoff potential type.
  Defaulting to exp(1/x)/(1-x)^2 type cutoff potential.
  Species P : No 'logarithmic' tag. Using default grid for free atom:
  | Default logarithmic grid data [bohr] : 0.1000E-03 0.1000E+03 0.1012E+01
  | Will include ionic basis functions of  2.0-fold positive P                    ion.
  Species P : On-site basis accuracy parameter (for Gram-Schmidt orthonormalisation) not specified.
  Using default value basis_acc =  0.1000000E-03.
  Species P                   : Using default innermost maximum threshold i_radial=  2 for radial functions.
  Species P                   : Default cutoff onset for free atom density etc. : 0.40000000E+01 AA.
  Species P                   : Basic radial grid will be enhanced according to radial_multiplier =   2, to contain    87 grid points.
 
  Reading configuration options for species S                   .
  | Found nuclear charge :  16.0000
  | Found atomic mass :    32.0650000000000      amu
  | Found l_max for Hartree potential  :   6
  | Found cutoff potl. onset [A], width [A], scale factor :    4.00000    2.00000    1.00000
  | Threshold for basis-dependent cutoff potential is   0.100000E-03
  | Found data for basic radial integration grid :    44 points, outermost radius =    7.000 A
  | Found multiplier for basic radial grid :   2
  | Found angular grid specification: user-specified.
  | Specified grid contains     5 separate shells.
  | Check grid settings after all constraints further below.
  | Found free-atom valence shell :  3 s   2.000
  | Found free-atom valence shell :  3 p   4.000
  | Found free-ion valence shell :  3 s   1.000
  | Found free-ion valence shell :  3 p   3.000
  | Found ionic basis function :  3 d , default cutoff radius.
  | Found hydrogenic basis function :  2 p   1.800
  | Found hydrogenic basis function :  4 f   7.000
  | Found ionic basis function :  3 s , default cutoff radius.
  | Found hydrogenic basis function :  4 d   6.200
  | Found hydrogenic basis function :  5 g  10.800
  Species S                   : Missing cutoff potential type.
  Defaulting to exp(1/x)/(1-x)^2 type cutoff potential.
  Species S : No 'logarithmic' tag. Using default grid for free atom:
  | Default logarithmic grid data [bohr] : 0.1000E-03 0.1000E+03 0.1012E+01
  | Will include ionic basis functions of  2.0-fold positive S                    ion.
  Species S : On-site basis accuracy parameter (for Gram-Schmidt orthonormalisation) not specified.
  Using default value basis_acc =  0.1000000E-03.
  Species S                   : Using default innermost maximum threshold i_radial=  2 for radial functions.
  Species S                   : Default cutoff onset for free atom density etc. : 0.40000000E+01 AA.
  Species S                   : Basic radial grid will be enhanced according to radial_multiplier =   2, to contain    89 grid points.
 
  Reading configuration options for species Cl                  .
  | Found nuclear charge :  17.0000
  | Found atomic mass :    35.4530000000000      amu
  | Found l_max for Hartree potential  :   6
  | Found cutoff potl. onset [A], width [A], scale factor :    4.00000    2.00000    1.00000
  | Threshold for basis-dependent cutoff potential is   0.100000E-03
  | Found data for basic radial integration grid :    45 points, outermost radius =    7.000 A
  | Found multiplier for basic radial grid :   2
  | Found angular grid specification: user-specified.
  | Specified grid contains     5 separate shells.
  | Check grid settings after all constraints further below.
  | Found free-atom valence shell :  3 s   2.000
  | Found free-atom valence shell :  3 p   5.000
  | Found free-ion valence shell :  3 s   1.000
  | Found free-ion valence shell :  3 p   4.000
  | Found ionic basis function :  3 d , default cutoff radius.
  | Found hydrogenic basis function :  2 p   1.900
  | Found hydrogenic basis function :  4 f   7.400
  | Found ionic basis function :  3 s , default cutoff radius.
  | Found hydrogenic basis function :  5 g  10.400
  | Found hydrogenic basis function :  3 d   3.300
  Species Cl                  : Missing cutoff potential type.
  Defaulting to exp(1/x)/(1-x)^2 type cutoff potential.
  Species Cl: No 'logarithmic' tag. Using default grid for free atom:
  | Default logarithmic grid data [bohr] : 0.1000E-03 0.1000E+03 0.1012E+01
  | Will include ionic basis functions of  2.0-fold positive Cl                   ion.
  Species Cl: On-site basis accuracy parameter (for Gram-Schmidt orthonormalisation) not specified.
  Using default value basis_acc =  0.1000000E-03.
  Species Cl                  : Using default innermost maximum threshold i_radial=  2 for radial functions.
  Species Cl                  : Default cutoff onset for free atom density etc. : 0.40000000E+01 AA.
  Species Cl                  : Basic radial grid will be enhanced according to radial_multiplier =   2, to contain    91 grid points.
 
  Finished reading input file 'control.in'. Consistency checks are next.
 
  MPI_IN_PLACE appears to work with this MPI implementation.
  | Keeping use_mpi_in_place .true. (see manual).
  Target number of points in a grid batch is not set. Defaulting to  100
  Method for grid partitioning is not set. Defaulting to parallel hash+maxmin partitioning.
  Batch size limit is not set. Defaulting to    200
  By default, will store active basis functions for each batch.
  If in need of memory, prune_basis_once .false. can be used to disable this option.
  communication_type for Hartree potential was not specified.
  Defaulting to calc_hartree .
  Defaulting to Pulay charge density mixer.
  Pulay mixer: Number of relevant iterations not set.
  Defaulting to    8 iterations.
  Pulay mixer: Number of initial linear mixing iterations not set.
  Defaulting to    0 iterations.
  Work space size for distributed Hartree potential not set.
  Defaulting to   0.200000E+03 MB.
  Mixing parameter for charge density mixing has not been set.
  Using default: charge_mix_param =     0.0500.
  The mixing parameter will be adjusted in iteration number     2 of the first full s.c.f. cycle only.
  Algorithm-dependent basis array size parameters:
  | n_max_pulay                         :        8
  Maximum number of self-consistency iterations not provided.
  Presetting  1000 iterations.
  Presetting      1001 iterations before the initial mixing cycle
  is restarted anyway using the sc_init_iter criterion / keyword.
  Presetting a factor      1.000 between actual scf density residual
  and density convergence criterion sc_accuracy_rho below which sc_init_iter
  takes no effect.
  Geometry relaxation not requested: no relaxation will be performed.
  Handling of forces: Unphysical translation and rotation will be removed from forces.
  No accuracy limit for integral partition fn. given. Defaulting to  0.1000E-14.
  No threshold value for u(r) in integrations given. Defaulting to  0.1000E-05.
  No occupation type (smearing scheme) given. Defaulting to Gaussian broadening, width =  0.1000E-01 eV.
  The width will be adjusted in iteration number     2 of the first full s.c.f. cycle only.
  S.C.F. convergence parameters will be adjusted in iteration number     2 of the first full s.c.f. cycle only.
  No accuracy for occupation numbers given. Defaulting to  0.1000E-12.
  No threshold value for occupation numbers given. Defaulting to  0.0000E+00.
  No accuracy for fermi level given. Defaulting to  0.1000E-19.
  Maximum # of iterations to find E_F not set. Defaulting to  200.
  Preferred method for the eigenvalue solver ('KS_method') not specified in 'control.in'.
  Calling BLACS routine to test compilation state
  Since ScaLAPACK support is enabled, defaulting to 'elsi'.
  Will not use alltoall communication since running on < 1024 CPUs.
  Threshold for basis singularities not set.
  Default threshold for basis singularities:  0.1000E-04
  partition_type (choice of integration weights) for integrals was not specified.
  | Using a version of the partition function of Stratmann and coworkers ('stratmann_smoother').
  | At each grid point, the set of atoms used to build the partition table is smoothly restricted to
  | only those atoms whose free-atom density would be non-zero at that grid point.
  Partitioning for Hartree potential was not defined. Using partition_type for integrals.
  | Adjusted default value of keyword multip_moments_threshold to:       0.10000000E-11
  | This value may affect high angular momentum components of the Hartree potential in periodic systems.
  Spin handling was not defined in control.in. Defaulting to unpolarized case.
  Angular momentum expansion for Kerker preconditioner not set explicitly.
  | Using default value of   0
  No explicit requirement for turning off preconditioner.
  | By default, it will be turned off when the charge convergence reaches
  | sc_accuracy_rho  =   0.100000E-05
  | sc_accuracy_eev  =   0.100000E-02
  | sc_accuracy_etot =   0.100000E-05
  No special mixing parameter while Kerker preconditioner is on.
  Using default: charge_mix_param =     0.0500.
  No q(lm)/r^(l+1) cutoff set for long-range Hartree potential.
  | Using default value of  0.100000E-09 .
  | Verify using the multipole_threshold keyword.
  Defaulting to new monopole extrapolation.
  Density update method: automatic selection selected.
  Using density matrix based charge density update.
  Using density matrix based charge density update.
  Using packed matrix style: index .
  Defaulting to use time-reversal symmetry for k-point grid.
------------------------------------------------------------


------------------------------------------------------------
          Reading geometry description geometry.in.
------------------------------------------------------------
 * Warning! You did not set the 'relativistic' flag in input file 'control.in'.
 * Since you are not attempting to treat any elements beyond Ca(Z=20), FHI-aims
 * will default to 'relativistic none'.
 * You must ensure that this is really what you want!!
 * For example, DO NOT compute total-energy differences between results from
 * different settings of the 'relativistic' flag.
  Input structure read successfully.
  The structure contains      104 atoms,  and a total of       1344.000 electrons.

  Input geometry:
  | Unit cell:
  |       20.79047785        0.00000000        0.00000000
  |        0.00000000       17.25912867        0.00000000
  |        0.00000000        0.00000000        7.97913272
  | Atomic structure:
  |       Atom                x [A]            y [A]            z [A]
  |    1: Species Li            2.86953725        2.55433899        4.94508719
  |    2: Species Li            1.85616073        8.66068221        4.48844574
  |    3: Species Li            9.51768684        3.90360881        3.00706584
  |    4: Species Li            7.26130960        1.48170392        6.72470622
  |    5: Species Li            8.54581794        0.98445881        3.25892439
  |    6: Species Li            7.10003956        6.30891934        3.67342423
  |    7: Species Li           13.30228332        2.54765665        2.75011344
  |    8: Species Li           12.68356607        8.98648535        4.64708847
  |    9: Species Li           20.40539983        4.88676570        4.51583611
  |   10: Species Li           14.78759061        3.08711527        6.68951802
  |   11: Species Li           18.91813335        1.10154402        4.86647826
  |   12: Species Li           16.86676033        7.68007193        5.67082508
  |   13: Species Li            3.65910425       11.72819900        4.88192316
  |   14: Species Li            1.44014850       17.19213197        4.55954362
  |   15: Species Li            9.67703178       13.10782621        4.29012710
  |   16: Species Li            6.97730272        9.29047542        5.01850263
  |   17: Species Li            8.78949848        9.66503185        2.35357677
  |   18: Species Li            6.93502277       15.28501098        4.87136593
  |   19: Species Li           13.21029931       11.69691035        2.76909651
  |   20: Species Li           12.03418955       17.15626139        3.66101576
  |   21: Species Li            0.17512239       13.53884109        4.68448295
  |   22: Species Li           17.16968994       10.96728666        6.66133721
  |   23: Species Li           19.39619542        9.32045861        3.43354421
  |   24: Species Li           17.47299874       15.85438824        5.53536134
  |   25: Species P             9.63833314        7.57484064        4.74571084
  |   26: Species P             4.95333480        0.68147644        3.57796408
  |   27: Species P            20.22248142        8.40183874        6.71268940
  |   28: Species P            15.71651906        1.21454976        3.08724708
  |   29: Species P             9.77495098       16.51182738        5.57695055
  |   30: Species P             4.67989899        8.97543171        2.89901245
  |   31: Species P            20.23207166       16.87463990        6.84631972
  |   32: Species P            15.59704691        9.41418156        3.48389551
  |   33: Species S             1.26808541        0.77496799        7.10030228
  |   34: Species S             3.07433669        0.43782015        2.64737077
  |   35: Species S             5.77757054        2.74872389        2.42724190
  |   36: Species S             9.49499197        6.50531720        2.77920501
  |   37: Species S             8.23606277       16.28105778        6.99854765
  |   38: Species S             6.55397838        8.11209958        2.36913461
  |   39: Species S            11.44158863        6.83262845        5.79399330
  |   40: Species S             4.81756830        1.30303857        5.68035549
  |   41: Species S             0.39345697        2.78622886        2.39327478
  |   42: Species S             1.33860740        4.82393740        2.50774202
  |   43: Species S             7.57077170        2.31749195        1.39056297
  |   44: Species S             8.09610464        3.19856082        5.02118213
  |   45: Species S            11.75900335        4.90349584        4.66121169
  |   46: Species S             6.36496678        4.06707026        4.35572617
  |   47: Species S             3.27050781        4.75368839        3.54854435
  |   48: Species S             3.14154271        6.08024320        5.43439762
  |   49: Species S             0.41008824        2.32657713        4.46174022
  |   50: Species S             2.37586828        4.91250181        6.98941055
  |   51: Species S            10.41851251        1.27024129        5.37933818
  |   52: Species S            14.77018096        1.09574729        1.20000471
  |   53: Species S            16.74580237        3.33841665        3.15333577
  |   54: Species S            20.10756213        7.37261197        4.68203982
  |   55: Species S            18.44051121        0.56764592        7.34553392
  |   56: Species S            16.98798472        7.95230991        3.06982015
  |   57: Species S            20.33547746        6.77234778        0.19007364
  |   58: Species S            14.19116797        1.34323956        4.66468590
  |   59: Species S            10.80888443        1.78040647        0.38931202
  |   60: Species S            10.62966753        3.84219474        0.11754845
  |   61: Species S            18.10841681        3.52697949        4.77728310
  |   62: Species S            17.11561086        4.23349032        6.80053768
  |   63: Species S             0.16541903        4.97220588        7.04676569
  |   64: Species S            15.64048986        5.54035793        6.38040515
  |   65: Species S            12.76044412        4.59580905        7.97207302
  |   66: Species S            13.20964624        6.07423288        1.68158010
  |   67: Species S            10.91898443        1.76432996        2.55990249
  |   68: Species S            13.62303027        5.18137380        3.50677274
  |   69: Species S             1.13689716        9.71415138        6.94791313
  |   70: Species S             2.92930461        8.09829153        1.98937033
  |   71: Species S             4.93349940       11.07480377        2.16883181
  |   72: Species S             9.40109772       15.37273029        3.66085810
  |   73: Species S             7.94024808        7.32523665        6.00238642
  |   74: Species S             6.42242208       16.61225864        2.93038283
  |   75: Species S            11.80618995       15.96604494        6.29008474
  |   76: Species S             4.47016627        9.36761328        5.05399141
  |   77: Species S             1.34885736       11.66883132        2.13564252
  |   78: Species S             1.72633236       13.83263547        2.55432639
  |   79: Species S             7.00211788       11.75910907        2.43835438
  |   80: Species S             7.36868459       11.91109279        4.67293697
  |   81: Species S            11.68480819       13.77851943        5.86755190
  |   82: Species S             5.91996619       13.12578877        5.70084310
  |   83: Species S             3.61441063       14.04604432        3.74396091
  |   84: Species S             3.18497761       15.32673089        5.59153890
  |   85: Species S             0.94276019       11.02688991        4.13467370
  |   86: Species S             2.69088761       14.15192884        7.24100420
  |   87: Species S            10.21662057        9.67204158        4.72711751
  |   88: Species S            13.77526339        9.29636281        2.37705871
  |   89: Species S            16.38672049       11.37567784        2.70382085
  |   90: Species S            20.03279074       15.83808193        4.81065073
  |   91: Species S            18.37845781        9.09805872        7.53545119
  |   92: Species S            17.16450385       17.07012219        3.28121759
  |   93: Species S            20.23082998       15.26251895        0.31067236
  |   94: Species S            15.06411019        9.64693968        5.59147137
  |   95: Species S            10.98467614       12.91615637        0.87643209
  |   96: Species S            12.17222132       14.72143572        1.54572388
  |   97: Species S            18.47581999       11.62155424        2.93271752
  |   98: Species S            18.73770823       12.29448288        5.24514190
  |   99: Species S             0.51163154       13.67359368        7.23142290
  |  100: Species S            17.06690746       13.34444307        6.00815109
  |  101: Species S            14.20761847       14.04570175        1.83024749
  |  102: Species S            14.56801516       14.75214005        3.93821702
  |  103: Species S            10.71511100       11.61626866        2.48204690
  |  104: Species S            13.76688757       13.29189275        5.20413862

  Lattice parameters for 3D lattice (in Angstroms) :    20.790478   17.259129    7.979133
  Angle(s) between unit vectors (in degrees)      :    90.000000   90.000000   90.000000

  |

  | The smallest distance between any two atoms is         2.01504248 AA.
  |
  | The first atom of this pair is atom number                     62 .
  | The second atom of this pair is atom number                    64 .
  | Wigner-Seitz cell of the first atom image           0     0     0 .
  | (The Wigner-Seitz cell of the second atom is 0 0 0  by definition.)

  Symmetry information by spglib:
  | Precision set to  0.1E-04
  | Number of Operations  : 1
  | Space group           : 1
  | International         : P1  Q
  | Schoenflies           : C1^1

  Quantities derived from the lattice vectors:
  | Reciprocal lattice vector 1:  0.302215  0.000000  0.000000
  | Reciprocal lattice vector 2:  0.000000  0.364050  0.000000
  | Reciprocal lattice vector 3:  0.000000  0.000000  0.787452
  | Unit cell volume                               :   0.286312E+04  A^3

  Range separation radius for Ewald summation (hartree_convergence_parameter):      4.36419516 bohr.

  Fractional coordinates:
                         L1                L2                L3
       atom_frac         0.13802171        0.14799930        0.61975247  Li
       atom_frac         0.08927937        0.50180298        0.56252301  Li
       atom_frac         0.45779067        0.22617647        0.37686625  Li
       atom_frac         0.34926131        0.08585045        0.84278661  Li
       atom_frac         0.41104481        0.05703989        0.40843090  Li
       atom_frac         0.34150440        0.36554101        0.46037889  Li
       atom_frac         0.63982576        0.14761212        0.34466320  Li
       atom_frac         0.61006612        0.52068013        0.58240521  Li
       atom_frac         0.98147815        0.28314093        0.56595576  Li
       atom_frac         0.71126747        0.17886855        0.83837658  Li
       atom_frac         0.90994221        0.06382385        0.60990065  Li
       atom_frac         0.81127334        0.44498608        0.71070695  Li
       atom_frac         0.17599905        0.67953599        0.61183631  Li
       atom_frac         0.06926962        0.99611819        0.57143348  Li
       atom_frac         0.46545500        0.75947207        0.53766835  Li
       atom_frac         0.33560088        0.53829342        0.62895340  Li
       atom_frac         0.42276558        0.55999535        0.29496649  Li
       atom_frac         0.33356726        0.88561893        0.61051321  Li
       atom_frac         0.63540143        0.67772311        0.34704229  Li
       atom_frac         0.57883179        0.99403983        0.45882377  Li
       atom_frac         0.00842320        0.78444523        0.58709174  Li
       atom_frac         0.82584393        0.63544846        0.83484477  Li
       atom_frac         0.93293649        0.54003066        0.43031546  Li
       atom_frac         0.84043276        0.91860884        0.69372970  Li
       atom_frac         0.46359363        0.43888894        0.59476525  P
       atom_frac         0.23825017        0.03948499        0.44841516  P
       atom_frac         0.97267997        0.48680550        0.84128058  P
       atom_frac         0.75594795        0.07037144        0.38691512  P
       atom_frac         0.47016481        0.95670110        0.69894195  P
       atom_frac         0.22509819        0.52003968        0.36332425  P
       atom_frac         0.97314125        0.97772259        0.85802805  P
       atom_frac         0.75020146        0.54546100        0.43662584  P
       atom_frac         0.06099357        0.04490192        0.88985890  S
       atom_frac         0.14787234        0.02536745        0.33178678  S
       atom_frac         0.27789503        0.15926203        0.30419871  S
       atom_frac         0.45669907        0.37692037        0.34830916  S
       atom_frac         0.39614591        0.94333023        0.87710631  S
       atom_frac         0.31523943        0.47001791        0.29691631  S
       atom_frac         0.55032831        0.39588490        0.72614324  S
       atom_frac         0.23171994        0.07549851        0.71190137  S
       atom_frac         0.01892486        0.16143508        0.29994172  S
       atom_frac         0.06438560        0.27950063        0.31428754  S
       atom_frac         0.36414611        0.13427630        0.17427495  S
       atom_frac         0.38941407        0.18532574        0.62928921  S
       atom_frac         0.56559563        0.28411028        0.58417523  S
       atom_frac         0.30614817        0.23564748        0.54588968  S
       atom_frac         0.15730797        0.27543038        0.44472808  S
       atom_frac         0.15110488        0.35229144        0.68107623  S
       atom_frac         0.01972481        0.13480270        0.55917609  S
       atom_frac         0.11427675        0.28463209        0.87596118  S
       atom_frac         0.50111943        0.07359823        0.67417580  S
       atom_frac         0.71043009        0.06348798        0.15039288  S
       atom_frac         0.80545539        0.19342904        0.39519781  S
       atom_frac         0.96715248        0.42717174        0.58678555  S
       atom_frac         0.88696909        0.03288960        0.92059302  S
       atom_frac         0.81710410        0.46075964        0.38473105  S
       atom_frac         0.97811496        0.39239222        0.02382134  S
       atom_frac         0.68258017        0.07782777        0.58461064  S
       atom_frac         0.51989591        0.10315738        0.04879127  S
       atom_frac         0.51127577        0.22261812        0.01473198  S
       atom_frac         0.87099570        0.20435444        0.59872210  S
       atom_frac         0.82324278        0.24528992        0.85229033  S
       atom_frac         0.00795648        0.28809136        0.88314933  S
       atom_frac         0.75229102        0.32101029        0.79963642  S
       atom_frac         0.61376387        0.26628280        0.99911523  S
       atom_frac         0.63537002        0.35194319        0.21074723  S
       atom_frac         0.52519161        0.10222590        0.32082465  S
       atom_frac         0.65525335        0.30021062        0.43949297  S
       atom_frac         0.05468355        0.56284136        0.87076044  S
       atom_frac         0.14089645        0.46921787        0.24932162  S
       atom_frac         0.23729610        0.64167804        0.27181298  S
       atom_frac         0.45218286        0.89070141        0.45880401  S
       atom_frac         0.38191754        0.42442679        0.75226051  S
       atom_frac         0.30891171        0.96252012        0.36725581  S
       atom_frac         0.56786525        0.92507827        0.78831685  S
       atom_frac         0.21501027        0.54276282        0.63340110  S
       atom_frac         0.06487861        0.67609620        0.26765347  S
       atom_frac         0.08303476        0.80146778        0.32012582  S
       atom_frac         0.33679447        0.68132693        0.30559140  S
       atom_frac         0.35442594        0.69013292        0.58564472  S
       atom_frac         0.56202692        0.79833227        0.73536211  S
       atom_frac         0.28474411        0.76051283        0.71446902  S
       atom_frac         0.17384933        0.81383276        0.46921903  S
       atom_frac         0.15319405        0.88803619        0.70077026  S
       atom_frac         0.04534577        0.63890189        0.51818585  S
       atom_frac         0.12942885        0.81996775        0.90749264  S
       atom_frac         0.49140865        0.56040150        0.59243500  S
       atom_frac         0.66257560        0.53863454        0.29790941  S
       atom_frac         0.78818393        0.65911078        0.33886150  S
       atom_frac         0.96355605        0.91766405        0.60290396  S
       atom_frac         0.88398439        0.52714473        0.94439477  S
       atom_frac         0.82559448        0.98904890        0.41122484  S
       atom_frac         0.97308153        0.88431573        0.03893561  S
       atom_frac         0.72456777        0.55894709        0.70076180  S
       atom_frac         0.52835131        0.74836665        0.10984052  S
       atom_frac         0.58547097        0.85296518        0.19372079  S
       atom_frac         0.88866740        0.67335695        0.36754841  S
       atom_frac         0.90126395        0.71234667        0.65735739  S
       atom_frac         0.02460894        0.79225284        0.90629184  S
       atom_frac         0.82090020        0.77318174        0.75298297  S
       atom_frac         0.68337142        0.81381291        0.22937925  S
       atom_frac         0.70070612        0.85474420        0.49356455  S
       atom_frac         0.51538551        0.67305070        0.31106725  S
       atom_frac         0.66217273        0.77013695        0.65221858  S

  Number of empty states per atom not set in control.in - providing a guess from actual geometry.
  | Total number of empty states used during s.c.f. cycle:      276
  If you use a very high smearing, use empty_states (per atom!) in control.in to increase this value.

  Structure-dependent array size parameters: 
  | Maximum number of distinct radial functions  :       43
  | Maximum number of basis functions            :     3840
  | Number of Kohn-Sham states (occupied + empty):      948
------------------------------------------------------------

------------------------------------------------------------
          Preparing all fixed parts of the calculation.
------------------------------------------------------------
  Determining machine precision:
    2.225073858507201E-308
  Setting up grids for atomic and cluster calculations.

  Creating wave function, potential, and density for free atoms.

  Species: Li

  List of occupied orbitals and eigenvalues:
    n    l              occ      energy [Ha]    energy [eV]
    1    0           2.0000        -1.901473       -51.7417
    2    0           1.0000        -0.103132        -2.8064


  Species: P

  List of occupied orbitals and eigenvalues:
    n    l              occ      energy [Ha]    energy [eV]
    1    0           2.0000       -76.356288     -2077.7603
    2    0           2.0000        -6.358286      -173.0178
    3    0           2.0000        -0.509419       -13.8620
    2    1           6.0000        -4.573976      -124.4642
    3    1           3.0000        -0.201560        -5.4847


  Species: S

  List of occupied orbitals and eigenvalues:
    n    l              occ      energy [Ha]    energy [eV]
    1    0           2.0000       -88.108280     -2397.5483
    2    0           2.0000        -7.732485      -210.4116
    3    0           2.0000        -0.629532       -17.1304
    2    1           6.0000        -5.750324      -156.4743
    3    1           4.0000        -0.257562        -7.0086


  Species: Cl

  List of occupied orbitals and eigenvalues:
    n    l              occ      energy [Ha]    energy [eV]
    1    0           2.0000      -100.710795     -2740.4802
    2    0           2.0000        -9.222997      -250.9705
    3    0           2.0000        -0.754245       -20.5241
    2    1           6.0000        -7.039872      -191.5647
    3    1           5.0000        -0.316221        -8.6048

  Creating fixed part of basis set: Ionic, confined, hydrogenic.
 
  Li                   hydrogenic:
 
  List of hydrogenic basis orbitals: 
    n    l      effective z      eigenvalue [eV]  inner max. [A]     outer max. [A]     outer radius [A]   
    2    1         1.600000        -8.7048           1.319365           1.319365           6.386418
    2    0         2.000000       -13.6052           0.203259           1.385485           6.232164
    3    2         2.600000       -10.2084           1.835332           1.835332           6.386418
    3    1         4.600000       -31.9883           0.343834           1.385485           5.381805
    2    1         1.800000       -11.0199           1.181903           1.181903           6.386418
    3    0         6.200000       -58.1113           0.062858           1.111823           4.371906
    4    2         4.700000       -18.7772           0.761113           2.401695           6.386418
    4    3         4.100000       -14.2833           2.073992           2.073992           6.386418
 
 
  P                    ion:

  List of free ionic orbitals and eigenvalues:
    n    l      energy [Ha]    energy [eV]
    1    0       -77.297133     -2103.3620
    2    0        -7.273914      -197.9333
    3    0        -1.267536       -34.4914
    2    1        -5.491316      -149.4263
    3    1        -0.913470       -24.8568


  List of ionic basis orbitals and eigenvalues:
    n    l      energy [Ha]    energy [eV]    outer radius [A]
    3    2        -0.458060       -12.4644       5.404780
    3    1        -0.913461       -24.8565       4.724723
    3    0        -1.267529       -34.4912       4.232463

 
  P                    hydrogenic:
 
  List of hydrogenic basis orbitals: 
    n    l      effective z      eigenvalue [eV]  inner max. [A]     outer max. [A]     outer radius [A]   
    4    3         6.200000       -32.6870           1.357793           1.357793           5.339109
    5    4         8.600000       -40.2502           1.534356           1.534356           5.404780
    4    2         6.200000       -32.6848           0.577014           1.820771           5.404780
 
 
  S                    ion:

  List of free ionic orbitals and eigenvalues:
    n    l      energy [Ha]    energy [eV]
    1    0       -89.127201     -2425.2745
    2    0        -8.724378      -237.4024
    3    0        -1.464668       -39.8556
    2    1        -6.744348      -183.5230
    3    1        -1.048520       -28.5317


  List of ionic basis orbitals and eigenvalues:
    n    l      energy [Ha]    energy [eV]    outer radius [A]
    3    2        -0.496514       -13.5108       5.386362
    3    0        -1.464662       -39.8555       3.967934

 
  S                    hydrogenic:
 
  List of hydrogenic basis orbitals: 
    n    l      effective z      eigenvalue [eV]  inner max. [A]     outer max. [A]     outer radius [A]   
    2    1         1.800000       -11.0118           1.168531           1.168531           5.452614
    4    3         7.000000       -41.6672           1.212182           1.212182           5.066981
    4    2         6.200000       -32.6848           0.582121           1.814567           5.386362
    5    4        10.800000       -63.4785           1.227092           1.227092           4.766538
 
 
  Cl                   ion:

  List of free ionic orbitals and eigenvalues:
    n    l      energy [Ha]    energy [eV]
    1    0      -101.807232     -2770.3157
    2    0       -10.290876      -280.0290
    3    0        -1.664625       -45.2967
    2    1        -8.110237      -220.6908
    3    1        -1.183915       -32.2160


  List of ionic basis orbitals and eigenvalues:
    n    l      energy [Ha]    energy [eV]    outer radius [A]
    3    2        -0.529392       -14.4055       5.389057
    3    0        -1.664620       -45.2966       3.780461

 
  Cl                   hydrogenic:
 
  List of hydrogenic basis orbitals: 
    n    l      effective z      eigenvalue [eV]  inner max. [A]     outer max. [A]     outer radius [A]   
    2    1         1.900000       -12.2741           1.113321           1.113321           5.389057
    4    3         7.400000       -46.5653           1.140877           1.140877           4.886961
    5    4        10.400000       -58.8635           1.273568           1.273568           4.886961
    3    2         3.300000       -16.4532           1.439178           1.439178           5.455343
 

  Adding cutoff potential to free-atom effective potential.
  Creating atomic-like basis functions for current effective potential.

  Species Li                  :

  List of atomic basis orbitals and eigenvalues:
    n    l      energy [Ha]    energy [eV]    outer radius [A]
    1    0        -1.901473       -51.7417       4.318785
    2    0        -0.103132        -2.8064       6.464971


  Species P                   :

  List of atomic basis orbitals and eigenvalues:
    n    l      energy [Ha]    energy [eV]    outer radius [A]
    1    0       -76.356288     -2077.7603       0.736837
    2    0        -6.358286      -173.0178       2.532824
    3    0        -0.509419       -13.8620       5.274236
    2    1        -4.573976      -124.4642       2.862183
    3    1        -0.201560        -5.4847       5.404780


  Species S                   :

  List of atomic basis orbitals and eigenvalues:
    n    l      energy [Ha]    energy [eV]    outer radius [A]
    1    0       -88.108280     -2397.5483       0.682391
    2    0        -7.732485      -210.4116       2.317169
    3    0        -0.629532       -17.1304       5.256262
    2    1        -5.750324      -156.4743       2.555240
    3    1        -0.257562        -7.0086       5.386362


  Species Cl                  :

  List of atomic basis orbitals and eigenvalues:
    n    l      energy [Ha]    energy [eV]    outer radius [A]
    1    0      -100.710795     -2740.4802       0.642251
    2    0        -9.222997      -250.9705       2.128190
    3    0        -0.754245       -20.5241       5.194994
    2    1        -7.039872      -191.5647       2.346844
    3    1        -0.316221        -8.6048       5.323577

  Assembling full basis from fixed parts.
  | Species Li :   atomic orbital   1 s accepted.
  | Species Li :    hydro orbital   3 s accepted.
  | Species Li :    hydro orbital   2 s accepted.
  | Species Li :   atomic orbital   2 s accepted.
  | Species Li :    hydro orbital   3 p accepted.
  | Species Li :    hydro orbital   2 p accepted.
  | Species Li :    hydro orbital   2 p accepted.
  | Species Li :    hydro orbital   3 d accepted.
  | Species Li :    hydro orbital   4 d accepted.
  | Species Li :    hydro orbital   4 f accepted.
  | Species P :   atomic orbital   1 s accepted.
  | Species P :   atomic orbital   2 s accepted.
  | Species P :    ionic orbital   3 s accepted.
  | Species P :   atomic orbital   3 s accepted.
  | Species P :   atomic orbital   2 p accepted.
  | Species P :    ionic orbital   3 p accepted.
  | Species P :   atomic orbital   3 p accepted.
  | Species P :    ionic orbital   3 d accepted.
  | Species P :    hydro orbital   4 d accepted.
  | Species P :    hydro orbital   4 f accepted.
  | Species P :    hydro orbital   5 g accepted.
  | Species S :   atomic orbital   1 s accepted.
  | Species S :   atomic orbital   2 s accepted.
  | Species S :    ionic orbital   3 s accepted.
  | Species S :   atomic orbital   3 s accepted.
  | Species S :   atomic orbital   2 p accepted.
  | Species S :   atomic orbital   3 p accepted.
  | Species S :    hydro orbital   2 p accepted.
  | Species S :    ionic orbital   3 d accepted.
  | Species S :    hydro orbital   4 d accepted.
  | Species S :    hydro orbital   4 f accepted.
  | Species S :    hydro orbital   5 g accepted.
  | Species Cl :   atomic orbital   1 s accepted.
  | Species Cl :   atomic orbital   2 s accepted.
  | Species Cl :    ionic orbital   3 s accepted.
  | Species Cl :   atomic orbital   3 s accepted.
  | Species Cl :   atomic orbital   2 p accepted.
  | Species Cl :   atomic orbital   3 p accepted.
  | Species Cl :    hydro orbital   2 p accepted.
  | Species Cl :    ionic orbital   3 d accepted.
  | Species Cl :    hydro orbital   3 d accepted.
  | Species Cl :    hydro orbital   4 f accepted.
  | Species Cl :    hydro orbital   5 g accepted.
 
  Basis size parameters after reduction:
  | Total number of radial functions:       43
  | Total number of basis functions :     3840
 
  Per-task memory consumption for arrays in subroutine allocate_ext:
  |          11.342760MB.
  Testing on-site integration grid accuracy.
  |  Species  Function  <phi|h_atom|phi> (log., in eV)  <phi|h_atom|phi> (rad., in eV)
           1        1                -51.7417001117                -51.7417000312
           1        2                 33.5927188637                 33.5926505054
           1        3                 69.1469416012                 69.1473382425
           1        4                 48.8336153902                 48.8810182289 ***
           1        5                 17.1749490570                 17.1749098864
           1        6                 32.1201183828                 32.1217831653
           1        7                  6.0166019876                  6.0249480535
           1        8                  4.9175332206                  4.9194842525
           1        9                 28.8010599263                 28.8011051086
           1       10                  9.9331480983                  9.9353515081
           2       11              -2077.7602992527              -2077.7602630746
           2       12               -173.0177635265               -173.0177629291
           2       13                -13.5620523038                -13.5620521963
           2       14                  6.3015351439                  6.3015396353
           2       15               -124.4642131574               -124.4642129967
           2       16                 -4.8468074573                 -4.8468065719
           2       17                  5.8113348591                  5.8108493787
           2       18                  5.1218113540                  5.1217878152
           2       19                 22.1386653152                 22.1386624883
           2       20                 19.3047268689                 19.3047231214
           2       21                 30.3235883931                 30.3235836780
           3       22              -2397.5482725833              -2397.5482291499
           3       23               -210.4116306505               -210.4116300246
           3       24                -16.8591546483                -16.8591544436
           3       25                  7.5848976656                  7.5849001027
           3       26               -156.4742745766               -156.4742744285
           3       27                 -7.0089268331                 -7.0089287934
           3       28                  6.8790437028                  6.8789536772
           3       29                  6.0023049431                  6.0023019693
           3       30                 19.5634804122                 19.5634829634
           3       31                 24.6809503130                 24.6809503093
           3       32                 47.5107032033                 47.5107040524
           4       33              -2740.4801671239              -2740.4801157382
           4       34               -250.9705040601               -250.9705032686
           4       35                -20.2716828479                -20.2716826054
           4       36                  9.0161300765                  9.0161279813
           4       37               -191.5646602865               -191.5646600866
           4       38                 -8.6049187754                 -8.6049181478
           4       39                  7.6458046208                  7.6458222053
           4       40                  6.9765726558                  6.9765744583
           4       41                 16.6546700656                 16.6546956458
           4       42                 28.0343243807                 28.0343233726
           4       43                 45.0370063060                 45.0370052039
 * Note: Onsite integrals marked "***" above are less accurate than
 * onsite_accuracy_threshold =    0.03000 eV. Usually, this is harmless.
 * When in doubt, tighten the "radial" and/or "radial_multiplier" flags to check.

  Preparing densities etc. for the partition functions (integrals / Hartree potential).

  Preparations completed.
  max(cpu_time)          :      0.466 s.
  Wall clock time (cpu1) :      0.473 s.
------------------------------------------------------------

------------------------------------------------------------
          Begin self-consistency loop: Initialization.

          Date     :  20220704, Time     :  082254.819
------------------------------------------------------------

  Initializing index lists of integration centers etc. from given atomic structure:
  Mapping all atomic coordinates to central unit cell.

  Initializing the k-points
          Using symmetry for reducing the k-points
  | k-points reduced from:        2 to        2
  | Number of k-points                             :         2
  The eigenvectors in the calculations are REAL.
  | Number of basis functions in the Hamiltonian integrals :     18501
  | Number of basis functions in a single unit cell        :      3840
  | Number of centers in hartree potential         :      2700
  | Number of centers in hartree multipole         :      1725
  | Number of centers in electron density summation:      1405
  | Number of centers in basis integrals           :      1483
  | Number of centers in integrals                 :       608
  | Number of centers in hamiltonian               :      1725
  | Consuming          1 KiB for k_phase.
  | Number of super-cells (origin) [n_cells]                     :         175
  | Number of super-cells (after PM_index) [n_cells]             :          46
  | Number of super-cells in hamiltonian [n_cells_in_hamiltonian]:          46
  | Size of matrix packed + index [n_hamiltonian_matrix_size] :    13173880
  Using simple linear distribution as default method for k-point parallelism.
  * Using 20 tasks for Scalapack Eigenvalue solver.
  Detailed listing of tasks and assigned k-points:
   Task     0 k-point     1 on node042
   Task     1 k-point     1 on node042
   Task     2 k-point     1 on node042
   Task     3 k-point     1 on node042
   Task     4 k-point     1 on node042
   Task     5 k-point     1 on node042
   Task     6 k-point     1 on node042
   Task     7 k-point     1 on node042
   Task     8 k-point     1 on node042
   Task     9 k-point     1 on node042
   Task    10 k-point     2 on node042
   Task    11 k-point     2 on node042
   Task    12 k-point     2 on node042
   Task    13 k-point     2 on node042
   Task    14 k-point     2 on node042
   Task    15 k-point     2 on node042
   Task    16 k-point     2 on node042
   Task    17 k-point     2 on node042
   Task    18 k-point     2 on node042
   Task    19 k-point     2 on node042
  K-point:     1 Tasks:    10 split into      5 X      2 BLACS grid
  Calculating block size based on n_basis =         3840 max_nprow =            5 max_npcol =            2
  ScaLAPACK block size set to:           16
  Allocating       11.796 MB for ovlp
  Allocating       11.796 MB for ham
  Allocating       11.796 MB for eigenvec
  Required Scalapack workspace - INTEGER:            1 REAL:             1
  Partitioning the integration grid into batches with parallel hashing+maxmin method.
  | Number of batches:    27251
  | Maximal batch size:     136
  | Minimal batch size:      52
  | Average batch size:      85.578
  | Standard deviation of batch sizes:      23.298

  Integration load balanced across    20 MPI tasks.
  Work distribution over tasks is as follows:
  Task     0 has     116635 integration points.
  Task     1 has     116578 integration points.
  Task     2 has     116638 integration points.
  Task     3 has     116568 integration points.
  Task     4 has     116635 integration points.
  Task     5 has     116547 integration points.
  Task     6 has     116624 integration points.
  Task     7 has     116626 integration points.
  Task     8 has     116564 integration points.
  Task     9 has     116616 integration points.
  Task    10 has     116577 integration points.
  Task    11 has     116618 integration points.
  Task    12 has     116625 integration points.
  Task    13 has     116617 integration points.
  Task    14 has     116544 integration points.
  Task    15 has     116620 integration points.
  Task    16 has     116547 integration points.
  Task    17 has     116614 integration points.
  Task    18 has     116637 integration points.
  Task    19 has     116650 integration points.
  Initializing partition tables, free-atom densities, potentials, etc. across the integration grid (initialize_grid_storage).
  | initialize_grid_storage: Actual outermost partition radius vs. multipole_radius_free
  | (-- VB: in principle, multipole_radius_free should be larger, hence this output)
  | Species        1: Confinement radius =              7.000000000000000 AA, multipole_radius_free =              7.042572113910259 AA.
  | Species        1: outer_partition_radius set to              7.042572113910259 AA .
  | Species        2: Confinement radius =              6.000000000000000 AA, multipole_radius_free =              6.033387558927091 AA.
  | Species        2: outer_partition_radius set to              6.033387558927091 AA .
  | Species        3: Confinement radius =              6.000000000000000 AA, multipole_radius_free =              6.012827091137924 AA.
  | Species        3: outer_partition_radius set to              6.012827091137924 AA .
  | Species        4: Confinement radius =              6.000000000000000 AA, multipole_radius_free =              6.015836048499353 AA.
  | Species        4: outer_partition_radius set to              6.015836048499353 AA .
  | Original list of interatomic distances with        1483 x       1483 entries is created.
  | Net number of integration points:  2332080
  | of which are non-zero points    :  1929734
  | Numerical average free-atom electrostatic potential    :     -8.24813950 eV
  Renormalizing the initial density to the exact electron count on the 3D integration grid.
  | Initial density: Formal number of electrons (from input files) :    1344.0000000000
  | Integrated number of electrons on 3D grid     :    1344.0000821755
[...]
  | Total energy evaluation                    :        0.003 s           0.005 s

  Partial memory accounting:
  | Current value for overall tracked memory usage on task 0  :         204.973 MB
  | Peak value for overall tracked memory usage on task 0     :         415.754 MB after allocating temp_ham_ovlp
  | Largest tracked array allocation on task 0 so far         :         105.391 MB  when allocating overlap_matrix
  Note:  These values currently only include a subset of arrays which are explicitly tracked.
  The "true" memory usage will be greater.
------------------------------------------------------------
  |------------------------------------------
  | Final ELSI Output
  |------------------------------------------
  | Number of basis functions :         3840
  | Number of electrons       :       1344.0
  | Number of spins           :            1
  | Number of k-points        :            2
  | Number of states          :          948
  | Solver                    :         ELPA
  | Parallel mode             :   MULTI_PROC
  | Matrix format             :  BLACS_DENSE
  | Matrix sparsity           :        0.224
  |------------------------------------------
  | ELSI Project (c)  elsi-interchange.org
  |------------------------------------------
  Removing unitary transformations (pure translations, rotations) from forces on atoms.
  Atomic forces before filtering:
  | Net force on center of mass :   0.326605E-03 -0.182312E-02  0.243793E-02 eV/A
  Atomic forces after filtering:
  | Net force on center of mass :  -0.133805E-14 -0.107044E-14 -0.334511E-15 eV/A

  Energy and forces in a compact form:
  | Total energy uncorrected      :         -0.859135582001125E+06 eV
  | Total energy corrected        :         -0.859135582001125E+06 eV  <-- do not rely on this value for anything but (periodic) metals
  | Electronic free energy        :         -0.859135582001125E+06 eV
  Total atomic forces (unitary forces cleaned) [eV/Ang]:
  |   1         -0.130389987079902E+00         -0.709356387257314E-01         -0.550314715775329E-01
  |   2          0.494155062845365E-01          0.105747895160809E+00          0.102211145764411E-01
  |   3         -0.178000868331328E-01          0.872242841018149E-02          0.554376772234588E-01
  |   4         -0.628085651893453E-01         -0.407255283774309E-01         -0.651794670840460E-01
  |   5          0.228749110573861E-01         -0.101286716753282E+00         -0.870110127525162E-01
  |   6          0.263323322075721E+00         -0.102316546682138E+00          0.225186552530784E+00
  |   7         -0.152733583425137E+00         -0.865541441154924E-01         -0.212596649390713E+00
  |   8          0.899596073811045E-01         -0.298178127455888E-01         -0.884725324598160E-01
  |   9          0.173859506502914E-01          0.201008631400348E-02          0.267790906706026E-01
  |  10          0.208257621332600E+00          0.466383751347586E-01         -0.704407632850575E-01
  |  11         -0.614737190264796E-01          0.492024549496122E-02         -0.155010100164736E+00
  |  12         -0.282938762584276E-01          0.334430913559008E-01          0.639510662008279E-01
  |  13          0.150063430365105E+00         -0.630663479138966E-01         -0.111386163750411E+00
  |  14         -0.627122702146816E-01          0.112475655004618E+00          0.106376364251274E+00
  |  15          0.625673124794175E-01         -0.135815079525923E+00         -0.217700785998638E+00
  |  16         -0.247955268669303E+00          0.589359021664285E-01         -0.370734743581051E-01
  |  17         -0.445850813018241E-01          0.333700222006492E-01          0.136348733492296E+00
  |  18          0.104918607179058E+00         -0.628367121536792E-01          0.224680140400380E+00
  |  19         -0.147406363732988E+00         -0.828817887118638E-01         -0.120866710933997E+00
  |  20          0.953279660900123E-01          0.983554401592354E-01          0.203136831948890E+00
  |  21         -0.799676449692968E-01         -0.327801209482835E-01          0.893683090085493E-02
  |  22         -0.106283998522103E+00          0.581758021300887E-01         -0.239167031232029E+00
  |  23         -0.954556314424014E-01         -0.706686348583383E-02          0.329469597468890E-01
  |  24          0.246750970443990E+00          0.487389691511837E-02          0.393552116522712E-02
  |  25         -0.456493377423882E+00          0.186817003768611E-01         -0.247728910790446E+00
  |  26         -0.522372673871255E+00         -0.334828238595031E+00          0.202563805738699E+00
  |  27          0.546352948094927E+00          0.713757525537819E+00         -0.270859359687360E+00
  |  28         -0.622025296643712E+00          0.231405406535087E+00         -0.192289791113754E+00
  |  29         -0.285283089457576E+00          0.123808044966971E+00         -0.189125573970929E+00
  |  30         -0.675090850222734E+00         -0.509901329899619E+00         -0.239069208829741E-01
  |  31          0.494008902709091E+00          0.604228148451845E+00         -0.342737178196023E+00
  |  32         -0.210915122668670E+00         -0.488807618467964E+00          0.197727515865347E+00
  |  33         -0.193133348038977E+01         -0.148210212284798E+01         -0.578988299295459E+00
  |  34          0.163323272524349E+01          0.477621545365783E+00          0.109519800073373E+01
  |  35          0.107184217850652E+01          0.174835075492612E+00         -0.243198928505879E+00
  |  36         -0.125385096252343E+00          0.141122040863780E+01          0.184473732459781E+01
  |  37          0.109758504276864E+01          0.168772086095888E+00         -0.146623534363886E+01
  |  38         -0.925896252449161E+00          0.725604698246715E+00          0.447926025454987E+00
  |  39         -0.280316441871264E+00         -0.141414179687145E+01         -0.137608639629248E+01
  |  40          0.205116736146217E+00         -0.781998250436676E+00         -0.186110253831136E+01
  |  41          0.848341158472200E+00          0.150640484268667E+01          0.952651840190055E+00
  |  42          0.240226834175322E+00         -0.867316433622106E+00          0.184781546040376E+00
  |  43         -0.131007021229753E+01          0.388398576231850E+00          0.105382132521382E+01
  |  44         -0.284145723910824E+00          0.204828373876694E-01         -0.276560223980702E+00
  |  45          0.935441684968635E+00          0.134784613609957E+01          0.525939998860979E+00
  |  46          0.156279751634200E+00         -0.663712450046406E+00         -0.684541911646706E+00
  |  47         -0.104615275470299E+01          0.401471137232949E+00          0.605942817824218E+00
  |  48         -0.559240397980219E+00         -0.139886859215812E+01         -0.460002999877597E+00
  |  49         -0.179085646931545E-02         -0.110310048562496E+00         -0.458693656017161E+00
  |  50         -0.562716479179684E+00          0.441062214814904E+00         -0.605119945784121E+00
  |  51         -0.428793718209441E+00         -0.159743725621721E+01         -0.338462283416567E-01
  |  52          0.485499511189357E+00          0.650032857677801E+00          0.165396516024156E+01
  |  53          0.283722758074550E+00         -0.400873166684340E+00          0.754312369573988E+00
  |  54          0.308181238857176E+00          0.120195139502924E+01          0.161223991325660E+01
  |  55          0.115071037702222E+01         -0.771389189247332E+00         -0.837881466939629E+00
  |  56         -0.787883097430019E+00          0.102457044003894E+01          0.715022029744136E+00
  |  57          0.424442131584053E+00         -0.123925930629986E+01         -0.127646814364514E+01
  |  58          0.957283470761559E+00         -0.378900858939719E-01         -0.962585960854104E+00
  |  59          0.173584015861972E-01          0.125329277864753E+01          0.973586439286551E+00
  |  60          0.115483900833657E+01         -0.374619335140622E+00         -0.267266635627401E+00
  |  61         -0.121841445051738E+01         -0.168374229940564E+00         -0.488788022649190E+00
  |  62          0.404819420440531E-01         -0.380429491535605E+00         -0.704975915190390E+00
  |  63          0.751995797968110E+00          0.129808064631054E+01          0.875911791154744E+00
  |  64          0.618407724508984E-01         -0.800473153463283E-01         -0.440929471108043E-04
  |  65         -0.719266461576685E+00          0.488932677438179E+00          0.121935228429540E+01
  |  66         -0.186415541969349E+00         -0.112235381089699E+01         -0.555972978152560E+00
  |  67         -0.213322692481947E-01         -0.203958462495536E+00         -0.661068938788153E+00
  |  68         -0.113992158363773E+01         -0.675199041088916E-02         -0.135762607301122E+00
  |  69         -0.205571294048296E+01         -0.171021753451189E+01         -0.585383170719052E+00
  |  70          0.202783674755380E+01          0.132342161282504E+01          0.139111893166625E+01
  |  71          0.934107135676421E+00          0.290413244908369E+00          0.684587212918848E-01
  |  72          0.376074238553129E+00          0.147048993789659E+01          0.192846441506684E+01
  |  73          0.130387549048593E+01          0.184650351927093E-01         -0.129502612532108E+01
  |  74         -0.890441897477723E+00          0.113360306979735E+01          0.817187621738212E+00
  |  75         -0.112910182170654E+01         -0.132944492041493E+01         -0.911593757867493E+00
  |  76          0.152441524165563E+00         -0.553254222016018E+00         -0.155488828773083E+01
  |  77          0.325714122627140E+00          0.150143554423995E+01          0.127461222634966E+01
  |  78          0.464315070911586E+00         -0.897545750034259E+00          0.973079033779766E-01
  |  79         -0.128296701783129E+01         -0.524803743397757E+00          0.797598403493995E+00
  |  80         -0.978131092007168E+00          0.569658566189950E+00          0.132640462594227E-01
  |  81          0.118139496851063E+01          0.912877844199200E+00         -0.176238354948983E-01
  |  82          0.111435437135128E+01         -0.806874323131296E+00         -0.103182982780027E+01
  |  83         -0.111759686361762E+01          0.116961032409767E+00          0.448156867952847E+00
  |  84         -0.260577177723383E+00         -0.116887893437588E+01         -0.473361528943437E+00
  |  85          0.565249631797220E-01         -0.837819416044490E-02         -0.490432696585232E+00
  |  86         -0.860248855168333E+00          0.530481553060112E-01         -0.661786783111297E+00
  |  87         -0.607965899394389E+00         -0.168235092587818E+01         -0.313528813663149E+00
  |  88          0.113041359063857E+01          0.485052656760734E+00          0.963637046599568E+00
  |  89          0.848807860654748E+00         -0.662953619505492E-01          0.137905129580211E+00
  |  90          0.240036769503727E+00          0.133924726212748E+01          0.156475664527725E+01
  |  91          0.109166442068563E+01         -0.667867022981872E+00         -0.746040411253994E+00
  |  92         -0.165806907791078E+00          0.373373511809215E+00          0.458143955898672E+00
  |  93          0.752055123122211E+00         -0.100337355114678E+01         -0.109554092861546E+01
  |  94          0.454509239514906E+00         -0.333382590627680E+00         -0.155597784957331E+01
  |  95          0.101604680032213E+01          0.109046834762467E+01          0.852992182223740E+00
  |  96          0.850192960486237E-01         -0.147145745636025E+01         -0.497722113592645E+00
  |  97         -0.143091083883948E+01         -0.113766220600279E+00          0.749024499176949E+00
  |  98         -0.954162491363845E+00          0.437220331534804E+00         -0.202812273501181E+00
  |  99          0.587371162071918E+00          0.132109307555598E+01          0.841976564806655E+00
  | 100          0.112006397892598E+01         -0.685513029338258E+00         -0.571757470841801E+00
  | 101         -0.916501383240979E+00          0.702308082579473E+00          0.992264978429614E+00
  | 102         -0.798937463354109E+00         -0.121939967571314E+01         -0.689867857837795E+00
  | 103         -0.621368968887250E-01          0.271478138783311E+00          0.874064126391531E-01
  | 104         -0.387934600504461E+00          0.843511808905117E+00         -0.140944759141024E+00

  ------------------------------------ 
  Start decomposition of the XC Energy 
  ------------------------------------ 
  X and C from original XC functional choice 
  Hartree-Fock Energy :          0.000000000 Ha              0.000000000 eV
  X Energy            :      -2015.672440745 Ha         -54849.237811155 eV
  C Energy            :        -51.552666622 Ha          -1402.819433463 eV
  Total XC Energy     :      -2067.225107367 Ha         -56252.057244618 eV
  ------------------------------------ 
  LDA X and C from self-consistent density 
  X Energy LDA        :      -1867.205163849 Ha         -50809.237653868 eV
  C Energy LDA        :       -102.988936355 Ha          -2802.471546399 eV
  ------------------------------------ 
  End decomposition of the XC Energy 
  ------------------------------------ 

------------------------------------------------------------

------------------------------------------------------------------------------
  Final output of selected total energy values:

  The following output summarizes some interesting total energy values
  at the end of a run (AFTER all relaxation, molecular dynamics, etc.).

  | Total energy of the DFT / Hartree-Fock s.c.f. calculation      :        -859135.582001125 eV
  | Final zero-broadening corrected energy (caution - metals only) :        -859135.582001125 eV
  | For reference only, the value of 1 Hartree used in FHI-aims is :             27.211384500 eV

  Before relying on these values, please be sure to understand exactly which
  total energy value is referred to by a given number. Different objects may
  all carry the same name 'total energy'. Definitions:

  Total energy of the DFT / Hartree-Fock s.c.f. calculation:
  | Note that this energy does not include ANY quantities calculated after the
  | s.c.f. cycle, in particular not ANY RPA, MP2, etc. many-body perturbation terms.

  Final zero-broadening corrected energy:
  | For metallic systems only, a broadening of the occupation numbers at the Fermi
  | level can be extrapolated back to zero broadening by an electron-gas inspired
  | formula. For all systems that are not real metals, this value can be
  | meaningless and should be avoided.

------------------------------------------------------------------------------
  Methods described in the following list of references were used in this FHI-aims run.
  If you publish the results, please make sure to cite these reference if they apply.
  FHI-aims is an academic code, and for our developers (often, Ph.D. students
  and postdocs), scientific credit in the community is essential.
  Thank you for helping us!

  For any use of FHI-aims, please cite:

    Volker Blum, Ralf Gehrke, Felix Hanke, Paula Havu, Ville Havu,
    Xinguo Ren, Karsten Reuter, and Matthias Scheffler
    'Ab initio molecular simulations with numeric atom-centered orbitals'
    Computer Physics Communications 180, 2175-2196 (2009)
    http://dx.doi.org/10.1016/j.cpc.2009.06.022


  The provided symmetry information was generated with SPGlib:

    Atsushi Togo, Yusuke Seto, Dimitar Pashov
    SPGlib 1.7.3 obtained from http://spglib.sourceforge.net
    Copyright (C) 2008 Atsushi Togo


  The scalable eigensolver library ELPA was used in your run.
  ELPA is essential especially for large systems on hundreds or thousands of CPUs.
  For ELPA, please cite:

    Andreas Marek, Volker Blum, Rainer Johanni, Ville Havu, Bruno Lang,
    Thomas Auckenthaler, Alexander Heinecke, Hans-Joachim Bungartz, and Hermann Lederer,
    'The ELPA Library - Scalable Parallel Eigenvalue Solutions
    for Electronic Structure Theory and Computational Science'
    The Journal of Physics: Condensed Matter 26, 213201 (2014).
    http://dx.doi.org/10.1088/0953-8984/26/21/213201


  The ELSI infrastructure was used in your run to solve the Kohn-Sham electronic structure.
  Please check out http://elsi-interchange.org to learn more.
  If scalability is important for your project, please acknowledge ELSI by citing:

    V. W-z. Yu, F. Corsetti, A. Garcia, W. P. Huhn, M. Jacquelin, W. Jia,
    B. Lange, L. Lin, J. Lu, W. Mi, A. Seifitokaldani, A. Vazquez-Mayagoitia,
    C. Yang, H. Yang, and V. Blum
    'ELSI: A unified software interface for Kohn-Sham electronic structure solvers'
    Computer Physics Communications 222, 267-285 (2018).
    http://dx.doi.org/10.1016/j.cpc.2017.09.007


  For the real-space grid partitioning and parallelization used in this calculation, please cite:

    Ville Havu, Volker Blum, Paula Havu, and Matthias Scheffler,
    'Efficient O(N) integration for all-electron electronic structure calculation'
    'using numerically tabulated basis functions'
    Journal of Computational Physics 228, 8367-8379 (2009).
    http://dx.doi.org/10.1016/j.jcp.2009.08.008

  Of course, there are many other important community references, e.g., those cited in the
  above references. Our list is limited to references that describe implementations in the
  FHI-aims code. The reason is purely practical (length of this list) - please credit others as well.

------------------------------------------------------------
          Leaving FHI-aims.
          Date     :  20220704, Time     :  090830.740

          Computational steps:
          | Number of self-consistency cycles          :           23
          | Number of SCF (re)initializations          :            1

          Detailed time accounting                     :  max(cpu_time)    wall_clock(cpu1)
          | Total time                                 :     2736.383 s        2736.493 s
          | Preparation time                           :        0.466 s           0.473 s
          | Boundary condition initalization           :        0.823 s           0.824 s
          | Grid partitioning                          :        3.879 s           3.879 s
          | Preloading free-atom quantities on grid    :        0.035 s           0.035 s
          | Free-atom superposition energy             :        1.557 s           1.557 s
          | Total time for integrations                :      551.025 s         551.006 s
          | Total time for solution of K.-S. equations :       59.108 s          59.104 s
          | Total time for density & force components  :     1462.785 s        1462.698 s
          | Total time for mixing & preconditioning    :      238.468 s         238.664 s
          | Total time for Hartree multipole update    :        0.657 s           0.656 s
          | Total time for Hartree multipole sum       :      408.390 s         408.388 s
          | Total time for total energy evaluation     :        0.011 s           0.019 s

          Partial memory accounting:
          | Residual value for overall tracked memory usage across tasks :           0.000 MB (should be 0.000 MB)
          | Peak values for overall tracked memory usage (after allocating temp_ham_ovlp):
          |   Minimum:      415.754 MB (on task  1)
          |   Maximum:      415.754 MB (on task  1)
          |   Average:      415.754 MB
          | Largest tracked array allocation (overlap_matrix):
          |   Minimum:      105.391 MB (on task  1)
          |   Maximum:      105.391 MB (on task  1)
          |   Average:      105.391 MB
          Note:  These values currently only include a subset of arrays which are explicitly tracked.
          The "true" memory usage will be greater.

          Have a nice day.
------------------------------------------------------------
