  MPI-parallelism will be employed.
------------------------------------------------------------
          Invoking FHI-aims ...
          Version 171221_1
          Compiled on 2020/09/23 at 19:46:43 on host login.service.

          When using FHI-aims, please cite the following reference:

          Volker Blum, Ralf Gehrke, Felix Hanke, Paula Havu,
          Ville Havu, Xinguo Ren, Karsten Reuter, and Matthias Scheffler,
          'Ab Initio Molecular Simulations with Numeric Atom-Centered Orbitals',
          Computer Physics Communications 180, 2175-2196 (2009)

          For any questions about FHI-aims, please visit the aimsclub website
          with its forums and wiki. Contributions to both the forums and the
          wiki are warmly encouraged - they are for you, and everyone is welcome there.

------------------------------------------------------------



  Date     :  20220704, Time     :  080145.798
  Time zero on CPU 1             :   0.871160000000000E-01  s.
  Internal wall clock time zero  :           426153705.798  s.

  FHI-aims created a unique identifier for this run for later identification
  aims_uuid : F020CF86-1224-4D2A-A6D9-0FEEE37D0DCD

  Using       20 parallel tasks.
  Task        0 on host node108 reporting.
  Task        1 on host node108 reporting.
  Task        2 on host node108 reporting.
  Task        3 on host node108 reporting.
  Task        4 on host node108 reporting.
  Task        5 on host node108 reporting.
  Task        6 on host node108 reporting.
  Task        7 on host node108 reporting.
  Task        8 on host node108 reporting.
  Task        9 on host node108 reporting.
  Task       10 on host node108 reporting.
  Task       11 on host node108 reporting.
  Task       12 on host node108 reporting.
  Task       13 on host node108 reporting.
  Task       14 on host node108 reporting.
  Task       15 on host node108 reporting.
  Task       16 on host node108 reporting.
  Task       17 on host node108 reporting.
  Task       18 on host node108 reporting.
  Task       19 on host node108 reporting.

  Performing system and environment tests:
  *** Environment variable OMP_NUM_THREADS is not set
  *** For performance reasons you might want to set it to 1
  | Maximum stacksize for task 0: unlimited
  | Maximum stacksize for task 1: unlimited
  | Maximum stacksize for task 2: unlimited
  | Maximum stacksize for task 3: unlimited
  | Maximum stacksize for task 4: unlimited
  | Maximum stacksize for task 5: unlimited
  | Maximum stacksize for task 6: unlimited
  | Maximum stacksize for task 7: unlimited
  | Maximum stacksize for task 8: unlimited
  | Maximum stacksize for task 9: unlimited
  | Maximum stacksize for task 10: unlimited
  | Maximum stacksize for task 11: unlimited
  | Maximum stacksize for task 12: unlimited
  | Maximum stacksize for task 13: unlimited
  | Maximum stacksize for task 14: unlimited
  | Maximum stacksize for task 15: unlimited
  | Maximum stacksize for task 16: unlimited
  | Maximum stacksize for task 17: unlimited
  | Maximum stacksize for task 18: unlimited
  | Maximum stacksize for task 19: unlimited
  | Current stacksize for task 0: unlimited
  | Current stacksize for task 1: unlimited
  | Current stacksize for task 2: unlimited
  | Current stacksize for task 3: unlimited
  | Current stacksize for task 4: unlimited
  | Current stacksize for task 5: unlimited
  | Current stacksize for task 6: unlimited
  | Current stacksize for task 7: unlimited
  | Current stacksize for task 8: unlimited
  | Current stacksize for task 9: unlimited
  | Current stacksize for task 10: unlimited
  | Current stacksize for task 11: unlimited
  | Current stacksize for task 12: unlimited
  | Current stacksize for task 13: unlimited
  | Current stacksize for task 14: unlimited
  | Current stacksize for task 15: unlimited
  | Current stacksize for task 16: unlimited
  | Current stacksize for task 17: unlimited
  | Current stacksize for task 18: unlimited
  | Current stacksize for task 19: unlimited
  | Checking for scalapack...
  | Testing pdtran()...
  | All pdtran() tests passed.

  Obtaining array dimensions for all initial allocations:
  
  -----------------------------------------------------------------------
  Parsing control.in (first pass over file, find array dimensions only).
  The contents of control.in will be repeated verbatim below
  unless switched off by setting 'verbatim_writeout .false.' .
  in the first line of control.in .
  -----------------------------------------------------------------------
  
  #===============================================================================
  # FHI-aims file: ./control.in
  # Created using the Atomic Simulation Environment (ASE)
  # Wed Mar 24 12:41:28 2021
  #===============================================================================
  xc                                 pbe
  sc_accuracy_etot                   1e-06
  sc_accuracy_eev                    0.001
  sc_accuracy_rho                    1e-06
  sc_accuracy_forces                 0.0001
  friction_temperature               300  # default 300
  
    k_grid                           1  1  2
  
  
  
  ################################################################################
  #
  #  FHI-aims code project
  # Volker Blum, Fritz Haber Institute Berlin, 2009
  #
  #  Suggested "tight" defaults for Li atom (to be pasted into control.in file)
  #
  #  2016/03/22: Increased cutoff radius to 5.0 AA (Xinguo Ren, Aug 15, 2015)
  #
  ################################################################################
    species        Li
  #     global species definitions
      nucleus             3
      mass                6.941
  #
      l_hartree           6
  #
      cut_pot             5.0  2.0  1.0
      basis_dep_cutoff    1e-4
  #
      radial_base         29 7.0
      radial_multiplier   2
      angular_grids       specified
        division   0.4484  110
        division   0.5659  194
        division   0.6315  302
        division   0.6662  434
  #      division   0.8186  590
  #      division   0.9037  770
  #      division   6.2760  974
  #      outer_grid   974
        outer_grid  434
  ################################################################################
  #
  #  Definition of "minimal" basis
  #
  ################################################################################
  #     valence basis states
      valence      2  s   1.
  #     ion occupancy
      ion_occ      1  s   2.
  ################################################################################
  #
  #  Suggested additional basis functions. For production calculations,
  #  uncomment them one after another (the most important basis functions are
  #  listed first).
  #
  #  Constructed for dimers: 1.80 A, 2.25 A, 2.75 A, 3.50 A, 4.50 A
  #
  ################################################################################
  #  "First tier" - improvements: -189.23 meV to -6.35 meV
       hydro 2 p 1.6
       hydro 2 s 2
       hydro 3 d 2.6
  #  "Second tier" - improvements: -4.69 meV to -0.41 meV
       hydro 3 p 4.6
       hydro 2 p 1.8
       hydro 3 s 6.2
       hydro 4 d 4.7
       hydro 4 f 4.1
  #  "Third tier" - improvements: -0.20 meV to -0.15 meV
  #     hydro 4 d 0.95
  #     hydro 3 p 6.2
  #     hydro 3 s 1.7
  #  Further functions, listed for completeness
  #     VB: The following functions are only listed for completeness; test very
  #         carefully before any kind of production use. From the point of view
  #         of the basis construction, their main role is to fill up space,
  #         and they are solely determined by the location of the cutoff potential.
  #     hydro 3 p 0.1  # -0.15 meV
  #     hydro 4 d 5    # -0.12 meV
  #     hydro 4 f 0.1  # -0.14 meV
  #     hydro 5 g 0.1  # -0.06 meV
  
  
  ################################################################################
  #
  # For methods that use the localized form of the "resolution of identity" for
  # the two-electron Coulomb operator (RI_method LVL), particularly Hartree-Fock and
  # hybrid density functional calculations, the highest accuracy can be obtained by
  # uncommenting the line beginning with "for_aux"  below, thus adding an extra g radial
  # function to the construction of the product basis set for the expansion.
  # See Ref. New J. Phys. 17, 093020 (2015) for more information, particularly Figs. 1 and 6.
  #
  ################################################################################
  #
  # for_aux hydro 5 g 6.0
  ################################################################################
  #
  #  FHI-aims code project
  # Volker Blum, Fritz Haber Institute Berlin, 2010
  #
  #  Suggested "tight" defaults for P atom (to be pasted into control.in file)
  #
  #  Revised Jan 04, 2011, following tests (SiC) done by Lydia Nemec:
  #     d function of tier 2 now enabled by default.
  #
  ################################################################################
    species        P
  #     global species definitions
      nucleus             15
      mass                30.973762
  #
      l_hartree           6
  #
      cut_pot             4.0          2.0  1.0
      basis_dep_cutoff    1e-4
  #
      radial_base         43 7.0
      radial_multiplier   2
      angular_grids       specified
        division   0.2995   50
        division   0.5998  110
        division   0.9240  194
        division   1.0921  302
        division   1.2863  434
  #      division   1.3165  590
  #      division   1.4113  770
  #      division   1.5128  974
  #      division   2.4980 1202
        outer_grid  434
  ################################################################################
  #
  #  Definition of "minimal" basis
  #
  ################################################################################
  #     valence basis states
      valence      3  s   2.
      valence      3  p   3.
  #     ion occupancy
      ion_occ      3  s   1.
      ion_occ      3  p   2.
  ################################################################################
  #
  #  Suggested additional basis functions. For production calculations,
  #  uncomment them one after another (the most important basis functions are
  #  listed first).
  #
  #  Constructed for dimers: 1.625 A, 1.875 A, 2.5 A, 3.25 A, 4.0 A
  #
  ################################################################################
  #  "First tier" - improvements: -726.20 meV to -35.91 meV
       ionic 3 d auto
       ionic 3 p auto
       hydro 4 f 6.2
       hydro 5 g 8.6
       ionic 3 s auto
  #  "Second tier" - improvements: -16.02 meV to -1.71 meV
       hydro 4 d 6.2
  #     hydro 4 p 9.2
  #     hydro 5 f 9.8
  #     hydro 1 s 0.7
  #     hydro 5 g 13.2
  #  "Third tier" - improvements: -1.82 meV to -0.20 meV
  #     hydro 3 p 2.5
  #     hydro 4 d 6.4
  #     hydro 5 f 11.2
  #     hydro 2 s 1.5
  #  "Fourth tier" - improvements: -0.91 meV to -0.17 meV
  #     hydro 3 d 16.8
  #     hydro 5 g 18
  #     hydro 4 p 4.5
  #     hydro 3 s 2.1
  #  Further basis functions that fell out of the optimization - < -0.09 meV
  #     hydro 4 p 10.4
  #     hydro 4 d 17.6
  #     hydro 4 s 11.2
  ################################################################################
  #
  # For methods that use the localized form of the "resolution of identity" for
  # the two-electron Coulomb operator (RI_method LVL), particularly Hartree-Fock and
  # hybrid density functional calculations, the highest accuracy can be obtained by
  # uncommenting the line beginning with "for_aux"  below, thus adding an extra g radial
  # function to the construction of the product basis set for the expansion.
  # See Ref. New J. Phys. 17, 093020 (2015) for more information, particularly Figs. 1 and 6.
  #
  ################################################################################
  #
  # for_aux hydro 5 g 6.0
  ################################################################################
  #
  #  FHI-aims code project
  # Volker Blum, Fritz Haber Institute Berlin, 2009
  #
  #  Suggested "tight" defaults for S atom (to be pasted into control.in file)
  #
  #  Revised Jan 04, 2011, following tests (SiC) done by Lydia Nemec:
  #     d and g functions of tier 2 now enabled by default.
  #
  ################################################################################
    species        S
  #     global species definitions
      nucleus             16
      mass                32.065
  #
      l_hartree           6
  #
      cut_pot             4.0          2.0  1.0
      basis_dep_cutoff    1e-4
  #
      radial_base         44 7.0
      radial_multiplier   2
      angular_grids       specified
        division   0.4665  110
        division   0.5810  194
        division   0.7139  302
        division   0.8274  434
  #      division   0.9105  590
  #      division   1.0975  770
  #      division   1.2028  974
  #      outer_grid  974
        outer_grid  434
  ################################################################################
  #
  #  Definition of "minimal" basis
  #
  ################################################################################
  #     valence basis states
      valence      3  s   2.
      valence      3  p   4.
  #     ion occupancy
      ion_occ      3  s   1.
      ion_occ      3  p   3.
  ################################################################################
  #
  #  Suggested additional basis functions. For production calculations,
  #  uncomment them one after another (the most important basis functions are
  #  listed first).
  #
  #  Constructed for dimers: 1.6 A, 1.9 A, 2.5 A, 3.25 A, 4.0 A
  #
  ################################################################################
  #  "First tier" - improvements: -652.81 meV to -45.53 meV
       ionic 3 d auto
       hydro 2 p 1.8
       hydro 4 f 7
       ionic 3 s auto
  #  "Second tier" - improvements: -30.20 meV to -1.74 meV
       hydro 4 d 6.2
       hydro 5 g 10.8
  #     hydro 4 p 4.9
  #     hydro 5 f 10
  #     hydro 1 s 0.8
  #  "Third tier" - improvements: -1.04 meV to -0.20 meV
  #     hydro 3 d 3.9
  #     hydro 3 d 2.7
  #     hydro 5 g 12
  #     hydro 4 p 10.4
  #     hydro 5 f 12.4
  #     hydro 2 s 1.9
  #  "Fourth tier" - improvements: -0.35 meV to -0.06 meV
  #     hydro 4 d 10.4
  #     hydro 4 p 7.2
  #     hydro 4 d 10
  #     hydro 5 g 19.2
  #     hydro 4 s 12
  
  ################################################################################
  #
  # For methods that use the localized form of the "resolution of identity" for
  # the two-electron Coulomb operator (RI_method LVL), particularly Hartree-Fock and
  # hybrid density functional calculations, the highest accuracy can be obtained by
  # uncommenting the line beginning with "for_aux"  below, thus adding an extra g radial
  # function to the construction of the product basis set for the expansion.
  # See Ref. New J. Phys. 17, 093020 (2015) for more information, particularly Figs. 1 and 6.
  #
  ################################################################################
  #
  # for_aux hydro 5 g 6.0
  ################################################################################
  #
  #  FHI-aims code project
  # Volker Blum, Fritz Haber Institute Berlin, 2009
  #
  #  Suggested "tight" defaults for Cl atom (to be pasted into control.in file)
  #
  #  Revised Jan 04, 2011, following tests (SiC) done by Lydia Nemec:
  #     d function of tier 2 now enabled by default.
  #
  ################################################################################
    species        Cl
  #     global species definitions
      nucleus             17
      mass                35.453
  #
      l_hartree           6
  #
      cut_pot             4.0          2.0  1.0
      basis_dep_cutoff    1e-4
  #
      radial_base         45 7.0
      radial_multiplier   2
      angular_grids       specified
        division   0.4412  110
        division   0.5489  194
        division   0.6734  302
        division   0.7794  434
  #      division   0.9402  590
  #      division   1.0779  770
  #      division   1.1792  974
  #      outer_grid  974
        outer_grid  434
  ################################################################################
  #
  #  Definition of "minimal" basis
  #
  ################################################################################
  #     valence basis states
      valence      3  s   2.
      valence      3  p   5.
  #     ion occupancy
      ion_occ      3  s   1.
      ion_occ      3  p   4.
  ################################################################################
  #
  #  Suggested additional basis functions. For production calculations,
  #  uncomment them one after another (the most important basis functions are
  #  listed first).
  #
  #  Constructed for dimers: 1.65 A, 2.0 A, 2.5 A, 3.25 A, 4.0 A
  #
  ################################################################################
  #  "First tier" - improvements: -429.57 meV to -15.03 meV
       ionic 3 d auto
       hydro 2 p 1.9
       hydro 4 f 7.4
       ionic 3 s auto
       hydro 5 g 10.4
  #  "Second tier" - improvements: -7.84 meV to -0.48 meV
       hydro 3 d 3.3
  #     hydro 5 f 9.8
  #     hydro 1 s 0.75
  #     hydro 5 g 11.2
  #     hydro 4 p 10.4
  #  "Third tier" - improvements: -1.00 meV to -0.12 meV
  #     hydro 4 d 12.8
  #     hydro 4 f 4.6
  #     hydro 4 d 10.8
  #     hydro 2 s 1.8
  #     hydro 3 p 3
  #  Further functions that fell out - improvements: -0.10 meV and below
  #     hydro 5 f 14.4
  #     hydro 4 s 12.8
  #     hydro 3 d 11.6
  #     hydro 4 s 4.1
  ################################################################################
  #
  # For methods that use the localized form of the "resolution of identity" for
  # the two-electron Coulomb operator (RI_method LVL), particularly Hartree-Fock and
  # hybrid density functional calculations, the highest accuracy can be obtained by
  # uncommenting the line beginning with "for_aux"  below, thus adding an extra g radial
  # function to the construction of the product basis set for the expansion.
  # See Ref. New J. Phys. 17, 093020 (2015) for more information, particularly Figs. 1 and 6.
  #
  ################################################################################
  #
  # for_aux hydro 5 g 6.0
  
  -----------------------------------------------------------------------
  Completed first pass over input file control.in .
  -----------------------------------------------------------------------
  
  
  -----------------------------------------------------------------------
  Parsing geometry.in (first pass over file, find array dimensions only).
  The contents of geometry.in will be repeated verbatim below
  unless switched off by setting 'verbatim_writeout .false.' .
  in the first line of geometry.in .
  -----------------------------------------------------------------------
  
  #=======================================================
  # FHI-aims file: ./data/test_rep/geometry.in.3
  # Created using the Atomic Simulation Environment (ASE)
  # Mon Jul  4 10:21:46 2022
  #=======================================================
  lattice_vector 19.4044459915320004 0.0000000000000000 0.0000000000000000
  lattice_vector 0.0000000000000000 16.1085200881780004 0.0000000000000000
  lattice_vector 0.0000000000000000 0.0000000000000000 7.4471905422459992
  atom 2.6782347695600000 2.3840497220399999 4.6154147080999994 Li
  atom 1.7324166844600000 8.0833033985200000 4.1892160205000000 Li
  atom 8.8831743858199985 3.6433682185599996 2.8065947814799999 Li
  atom 6.7772222978599999 1.3829236572199999 6.2763924717200004 Li
  atom 7.9760967424600002 0.9188282206600000 3.0416627666600000 Li
  atom 6.6267035892399999 5.8883247207400000 3.4285292806799998 Li
  atom 12.4154644299000001 2.3778128756199997 2.5667725438600000 Li
  atom 11.8379949963799991 8.3873863264799997 4.3372825682199991 Li
  atom 19.0450398434800015 4.5609813195799997 4.2147803690999996 Li
  atom 13.8017512324999991 2.8813075834199999 6.2435501501799999 Li
  atom 17.6569244637799976 1.0281077531200000 4.5420463769799992 Li
  atom 15.7423096406800003 7.1680671306999999 5.2927700702800005 Li
  atom 3.4151639701200001 10.9463190653600009 4.5564616124999997 Li
  atom 1.3441385980400000 16.0459898395999971 4.2555740421600001 Li
  atom 9.0318963242199999 12.2339711298000005 4.0041186312399999 Li
  atom 6.5121492048200000 8.6711103894799990 4.6839357916400006 Li
  atom 8.2035319182599995 9.0206963971600000 2.1966716473800001 Li
  atom 6.4726879142799998 14.2660102457600004 4.5466082054399992 Li
  atom 12.3296126872800009 10.9171163276000005 2.5844900775399999 Li
  atom 11.2319102439599998 16.0125106268400010 3.4169480424800001 Li
  atom 0.1634475634400000 12.6362516845599995 4.3721840833999996 Li
  atom 16.0250439418999981 10.2361342157199999 6.2172480605199993 Li
  atom 18.1031157256600004 8.6990947069600004 3.2046412589800002 Li
  atom 16.3081321612999979 14.7974290216199993 5.1663372508999998 Li
  atom 8.9957775941599998 7.0698512621800003 4.4293301138799999 P
  atom 4.6231124816799998 0.6360446764000000 3.3394331402599997 P
  atom 18.8743159966200018 7.8417161534599993 6.2651767754799996 P
  atom 14.6687511192600013 1.1335797797800000 2.8814306037999997 P
  atom 9.1232875785800012 15.4110388853399982 5.2051538503999994 P
  atom 4.3679057228799998 8.3770695940400000 2.7057449542200001 P
  atom 18.8832668854199994 15.7496639046600002 6.3898984099999998 P
  atom 14.5572437851399989 8.7865694599199990 3.2516358134400001 P
  atom 1.1835463792600001 0.7233034579399999 6.6269487950399997 S
  atom 2.8693809060000000 0.4086321376200000 2.4708793811800001 S
  atom 5.3923991664199997 2.5654756304799999 2.2654257719799999 S
  atom 8.8619925021599997 6.0716293881599999 2.5939246766999999 S
  atom 7.6869919159599993 15.1956539326200009 6.5319778084399998 S
  atom 6.1170464836600003 7.5712929454399998 2.2111923064000001 S
  atom 10.6788160525200002 6.3771198852200000 5.4077270759399996 S
  atom 4.4963970783199994 1.2161693277999999 5.3016651255400005 S
  atom 0.3672265016000000 2.6004802700799998 2.2337231296800000 S
  atom 1.2493669052200000 4.5023415691800004 2.3405592202999999 S
  atom 7.0660535906800002 2.1629924871799999 1.2978587683599998 S
  atom 7.5563643290800000 2.9853234339599997 4.6864366516800002 S
  atom 10.9750697937999995 4.5765961182199995 4.3504642405000000 S
  atom 5.9406356575999997 3.7959322401000000 4.0653444291600005 S
  atom 3.0524739600599999 4.4367758304799993 3.3119747250799998 S
  atom 2.9321065292399999 5.6748936577200002 5.0721044483199993 S
  atom 0.3827490195200000 2.1714719861800003 4.1642908690600002 S
  atom 2.2174770601200002 4.5850016870000001 6.5234498484399994 S
  atom 9.7239450086799994 1.1855585407400000 5.0207156336400001 S
  atom 13.7855022278400003 1.0226974690800001 1.1200043964199999 S
  atom 15.6294155487399991 3.1158555433599999 2.9431133835600001 S
  atom 18.7670579924799981 6.8811045057999998 4.3699038350799997 S
  atom 17.2111437934800016 0.5298028558200000 6.8558316562400003 S
  atom 15.8554524007599991 7.4221559123600001 2.8651654693199999 S
  atom 18.9797789651399995 6.3208579274399996 0.1774020647000000 S
  atom 13.2450901017399989 1.2536902604800000 4.3537068360799998 S
  atom 10.0882921301400010 1.6617127077600000 0.3633578898600000 S
  atom 9.9210230321999990 3.5860484242799999 0.1097118888600000 S
  atom 16.9011890259799991 3.2918475242800000 4.4587975623800000 S
  atom 15.9745701316600002 3.9512576321399999 6.3471685019399997 S
  atom 0.1543910982600000 4.6407254846399999 6.5769813067000005 S
  atom 14.5977905403399983 5.1710007308399994 5.9550448112399996 S
  atom 11.9097478435599999 4.2894217819599998 7.4406014811799999 S
  atom 12.3290031615799993 5.6692840240399995 1.5694747559400000 S
  atom 10.1910521361599997 1.6467079591200000 2.3892423206399998 S
  atom 12.7148282550800005 4.8359488826599994 3.2729878946800000 S
  atom 1.0611040159999998 9.0665412861799997 6.4847189195599997 S
  atom 2.7340176406200003 7.5584054309400006 1.8567456447399999 S
  atom 4.6045994428000006 10.3364835207199999 2.0242430199600001 S
  atom 8.7743578690599993 14.3478816066599997 3.4168008945000001 S
  atom 7.4108982054799997 6.8368875379000000 5.6022273270600005 S
  atom 5.9942606117799997 15.5047747289399993 2.7350239722400000 S
  atom 11.0191106223799995 14.9016419413399994 5.8707457590600001 S
  atom 4.1721551808999999 8.7431057239399994 4.7170586509200003 S
  atom 1.2589335368399999 10.8909092342400005 1.9932663547999998 S
  atom 1.6112435397799998 12.9104597740999996 2.3840379659599997 S
  atom 6.5353100210999999 10.9751684699999998 2.2757974167600001 S
  atom 6.8774389510400002 11.1170199400400005 4.3614078348400005 S
  atom 10.9058209749999993 12.8599514717800005 5.4763817697399997 S
  atom 5.5253017752800000 12.2507361809000006 5.3207868953399995 S
  atom 3.3734499222199998 13.1096413607599995 3.4943635148800003 S
  atom 2.9726457658799998 14.3049488287999989 5.2187696440600000 S
  atom 0.8799095130000000 10.2917639186599992 3.8590287904000000 S
  atom 2.5114951029000001 13.2084669196200011 6.7582705884400003 S
  atom 9.5355125334000004 9.0272388085599999 4.4119763463999995 S
  atom 12.8569124947199995 8.6766052857400009 2.2185881321799998 S
  atom 15.2942724537399997 10.6172993131799984 2.5235661225600001 S
  atom 18.6972713565399999 14.7822098009600005 4.4899406844600005 S
  atom 17.1532272928800005 8.4915214743800007 7.0330877793399997 S
  atom 16.0202035915599978 15.9321140453999988 3.0624697542599999 S
  atom 18.8821079776000005 14.2450176873200007 0.2899608721800000 S
  atom 14.0598361787799995 9.0038103679999999 5.2187066124200001 S
  atom 10.2523643994800011 12.0550792779199991 0.8180032795200000 S
  atom 11.3607399032399989 13.7400066735399999 1.4426756184400000 S
  atom 17.2440986582200004 10.8467839600399998 2.7372030140000003 S
  atom 17.4885276857200012 11.4748506916399986 4.8954657722599997 S
  atom 0.4775227723000000 12.7620207656199991 6.7493280374799998 S
  atom 15.9291136303599998 12.4548135339600012 5.6076076828800003 S
  atom 13.2604439018799987 13.1093216328200004 1.7082309929999999 S
  atom 13.5968141450399997 13.7686640501199999 3.6756692194600000 S
  atom 10.0007702656399999 10.8418507478400006 2.3165771071800001 S
  atom 12.8490950680400005 12.4057665684399989 4.8571960421600000 S
  
  -----------------------------------------------------------------------
  Completed first pass over input file geometry.in .
  -----------------------------------------------------------------------
  

  Basic array size parameters:
  | Number of species                 :        4
  | Number of atoms                   :      104
  | Number of lattice vectors         :        3
  | Max. basis fn. angular momentum   :        4
  | Max. atomic/ionic basis occupied n:        3
  | Max. number of basis fn. types    :        3
  | Max. radial fns per species/type  :        8
  | Max. logarithmic grid size        :     1362
  | Max. radial integration grid size :       91
  | Max. angular integration grid size:      434
  | Max. angular grid division number :        8
  | Radial grid for Hartree potential :     1362
  | Number of spin channels           :        1

------------------------------------------------------------
          Reading file control.in.
------------------------------------------------------------
  XC: Using PBE gradient-corrected functionals.
  Convergence accuracy of total energy:  0.1000E-05
  Convergence accuracy of sum of eigenvalues:  0.1000E-02
  Convergence accuracy of self-consistent charge density:  0.1000E-05
  Convergence accuracy of forces:  0.1000E-03
  Friction is calculated at temperature of   0.3000E+03 K
  Found k-point grid:         1         1         2
 
  Reading configuration options for species Li                  .
  | Found nuclear charge :   3.0000
  | Found atomic mass :    6.94100000000000      amu
  | Found l_max for Hartree potential  :   6
  | Found cutoff potl. onset [A], width [A], scale factor :    5.00000    2.00000    1.00000
  | Threshold for basis-dependent cutoff potential is   0.100000E-03
  | Found data for basic radial integration grid :    29 points, outermost radius =    7.000 A
  | Found multiplier for basic radial grid :   2
  | Found angular grid specification: user-specified.
  | Specified grid contains     5 separate shells.
  | Check grid settings after all constraints further below.
  | Found free-atom valence shell :  2 s   1.000
  | Found free-ion valence shell :  1 s   2.000
  | Found hydrogenic basis function :  2 p   1.600
  | Found hydrogenic basis function :  2 s   2.000
  | Found hydrogenic basis function :  3 d   2.600
  | Found hydrogenic basis function :  3 p   4.600
  | Found hydrogenic basis function :  2 p   1.800
  | Found hydrogenic basis function :  3 s   6.200
  | Found hydrogenic basis function :  4 d   4.700
  | Found hydrogenic basis function :  4 f   4.100
  Species Li                  : Missing cutoff potential type.
  Defaulting to exp(1/x)/(1-x)^2 type cutoff potential.
  Species Li: No 'logarithmic' tag. Using default grid for free atom:
  | Default logarithmic grid data [bohr] : 0.1000E-03 0.1000E+03 0.1012E+01
  Species Li: On-site basis accuracy parameter (for Gram-Schmidt orthonormalisation) not specified.
  Using default value basis_acc =  0.1000000E-03.
  Species Li                  : Using default innermost maximum threshold i_radial=  2 for radial functions.
  Species Li                  : Default cutoff onset for free atom density etc. : 0.50000000E+01 AA.
  Species Li                  : Basic radial grid will be enhanced according to radial_multiplier =   2, to contain    59 grid points.
 
  Reading configuration options for species P                   .
  | Found nuclear charge :  15.0000
  | Found atomic mass :    30.9737620000000      amu
  | Found l_max for Hartree potential  :   6
  | Found cutoff potl. onset [A], width [A], scale factor :    4.00000    2.00000    1.00000
  | Threshold for basis-dependent cutoff potential is   0.100000E-03
  | Found data for basic radial integration grid :    43 points, outermost radius =    7.000 A
  | Found multiplier for basic radial grid :   2
  | Found angular grid specification: user-specified.
  | Specified grid contains     6 separate shells.
  | Check grid settings after all constraints further below.
  | Found free-atom valence shell :  3 s   2.000
  | Found free-atom valence shell :  3 p   3.000
  | Found free-ion valence shell :  3 s   1.000
  | Found free-ion valence shell :  3 p   2.000
  | Found ionic basis function :  3 d , default cutoff radius.
  | Found ionic basis function :  3 p , default cutoff radius.
  | Found hydrogenic basis function :  4 f   6.200
  | Found hydrogenic basis function :  5 g   8.600
  | Found ionic basis function :  3 s , default cutoff radius.
  | Found hydrogenic basis function :  4 d   6.200
  Species P                   : Missing cutoff potential type.
  Defaulting to exp(1/x)/(1-x)^2 type cutoff potential.
  Species P : No 'logarithmic' tag. Using default grid for free atom:
  | Default logarithmic grid data [bohr] : 0.1000E-03 0.1000E+03 0.1012E+01
  | Will include ionic basis functions of  2.0-fold positive P                    ion.
  Species P : On-site basis accuracy parameter (for Gram-Schmidt orthonormalisation) not specified.
  Using default value basis_acc =  0.1000000E-03.
  Species P                   : Using default innermost maximum threshold i_radial=  2 for radial functions.
  Species P                   : Default cutoff onset for free atom density etc. : 0.40000000E+01 AA.
  Species P                   : Basic radial grid will be enhanced according to radial_multiplier =   2, to contain    87 grid points.
 
  Reading configuration options for species S                   .
  | Found nuclear charge :  16.0000
  | Found atomic mass :    32.0650000000000      amu
  | Found l_max for Hartree potential  :   6
  | Found cutoff potl. onset [A], width [A], scale factor :    4.00000    2.00000    1.00000
  | Threshold for basis-dependent cutoff potential is   0.100000E-03
  | Found data for basic radial integration grid :    44 points, outermost radius =    7.000 A
  | Found multiplier for basic radial grid :   2
  | Found angular grid specification: user-specified.
  | Specified grid contains     5 separate shells.
  | Check grid settings after all constraints further below.
  | Found free-atom valence shell :  3 s   2.000
  | Found free-atom valence shell :  3 p   4.000
  | Found free-ion valence shell :  3 s   1.000
  | Found free-ion valence shell :  3 p   3.000
  | Found ionic basis function :  3 d , default cutoff radius.
  | Found hydrogenic basis function :  2 p   1.800
  | Found hydrogenic basis function :  4 f   7.000
  | Found ionic basis function :  3 s , default cutoff radius.
  | Found hydrogenic basis function :  4 d   6.200
  | Found hydrogenic basis function :  5 g  10.800
  Species S                   : Missing cutoff potential type.
  Defaulting to exp(1/x)/(1-x)^2 type cutoff potential.
  Species S : No 'logarithmic' tag. Using default grid for free atom:
  | Default logarithmic grid data [bohr] : 0.1000E-03 0.1000E+03 0.1012E+01
  | Will include ionic basis functions of  2.0-fold positive S                    ion.
  Species S : On-site basis accuracy parameter (for Gram-Schmidt orthonormalisation) not specified.
  Using default value basis_acc =  0.1000000E-03.
  Species S                   : Using default innermost maximum threshold i_radial=  2 for radial functions.
  Species S                   : Default cutoff onset for free atom density etc. : 0.40000000E+01 AA.
  Species S                   : Basic radial grid will be enhanced according to radial_multiplier =   2, to contain    89 grid points.
 
  Reading configuration options for species Cl                  .
  | Found nuclear charge :  17.0000
  | Found atomic mass :    35.4530000000000      amu
  | Found l_max for Hartree potential  :   6
  | Found cutoff potl. onset [A], width [A], scale factor :    4.00000    2.00000    1.00000
  | Threshold for basis-dependent cutoff potential is   0.100000E-03
  | Found data for basic radial integration grid :    45 points, outermost radius =    7.000 A
  | Found multiplier for basic radial grid :   2
  | Found angular grid specification: user-specified.
  | Specified grid contains     5 separate shells.
  | Check grid settings after all constraints further below.
  | Found free-atom valence shell :  3 s   2.000
  | Found free-atom valence shell :  3 p   5.000
  | Found free-ion valence shell :  3 s   1.000
  | Found free-ion valence shell :  3 p   4.000
  | Found ionic basis function :  3 d , default cutoff radius.
  | Found hydrogenic basis function :  2 p   1.900
  | Found hydrogenic basis function :  4 f   7.400
  | Found ionic basis function :  3 s , default cutoff radius.
  | Found hydrogenic basis function :  5 g  10.400
  | Found hydrogenic basis function :  3 d   3.300
  Species Cl                  : Missing cutoff potential type.
  Defaulting to exp(1/x)/(1-x)^2 type cutoff potential.
  Species Cl: No 'logarithmic' tag. Using default grid for free atom:
  | Default logarithmic grid data [bohr] : 0.1000E-03 0.1000E+03 0.1012E+01
  | Will include ionic basis functions of  2.0-fold positive Cl                   ion.
  Species Cl: On-site basis accuracy parameter (for Gram-Schmidt orthonormalisation) not specified.
  Using default value basis_acc =  0.1000000E-03.
  Species Cl                  : Using default innermost maximum threshold i_radial=  2 for radial functions.
  Species Cl                  : Default cutoff onset for free atom density etc. : 0.40000000E+01 AA.
  Species Cl                  : Basic radial grid will be enhanced according to radial_multiplier =   2, to contain    91 grid points.
 
  Finished reading input file 'control.in'. Consistency checks are next.
 
  MPI_IN_PLACE appears to work with this MPI implementation.
  | Keeping use_mpi_in_place .true. (see manual).
  Target number of points in a grid batch is not set. Defaulting to  100
  Method for grid partitioning is not set. Defaulting to parallel hash+maxmin partitioning.
  Batch size limit is not set. Defaulting to    200
  By default, will store active basis functions for each batch.
  If in need of memory, prune_basis_once .false. can be used to disable this option.
  communication_type for Hartree potential was not specified.
  Defaulting to calc_hartree .
  Defaulting to Pulay charge density mixer.
  Pulay mixer: Number of relevant iterations not set.
  Defaulting to    8 iterations.
  Pulay mixer: Number of initial linear mixing iterations not set.
  Defaulting to    0 iterations.
  Work space size for distributed Hartree potential not set.
  Defaulting to   0.200000E+03 MB.
  Mixing parameter for charge density mixing has not been set.
  Using default: charge_mix_param =     0.0500.
  The mixing parameter will be adjusted in iteration number     2 of the first full s.c.f. cycle only.
  Algorithm-dependent basis array size parameters:
  | n_max_pulay                         :        8
  Maximum number of self-consistency iterations not provided.
  Presetting  1000 iterations.
  Presetting      1001 iterations before the initial mixing cycle
  is restarted anyway using the sc_init_iter criterion / keyword.
  Presetting a factor      1.000 between actual scf density residual
  and density convergence criterion sc_accuracy_rho below which sc_init_iter
  takes no effect.
  Geometry relaxation not requested: no relaxation will be performed.
  Handling of forces: Unphysical translation and rotation will be removed from forces.
  No accuracy limit for integral partition fn. given. Defaulting to  0.1000E-14.
  No threshold value for u(r) in integrations given. Defaulting to  0.1000E-05.
  No occupation type (smearing scheme) given. Defaulting to Gaussian broadening, width =  0.1000E-01 eV.
  The width will be adjusted in iteration number     2 of the first full s.c.f. cycle only.
  S.C.F. convergence parameters will be adjusted in iteration number     2 of the first full s.c.f. cycle only.
  No accuracy for occupation numbers given. Defaulting to  0.1000E-12.
  No threshold value for occupation numbers given. Defaulting to  0.0000E+00.
  No accuracy for fermi level given. Defaulting to  0.1000E-19.
  Maximum # of iterations to find E_F not set. Defaulting to  200.
  Preferred method for the eigenvalue solver ('KS_method') not specified in 'control.in'.
  Calling BLACS routine to test compilation state
  Since ScaLAPACK support is enabled, defaulting to 'elsi'.
  Will not use alltoall communication since running on < 1024 CPUs.
  Threshold for basis singularities not set.
  Default threshold for basis singularities:  0.1000E-04
  partition_type (choice of integration weights) for integrals was not specified.
  | Using a version of the partition function of Stratmann and coworkers ('stratmann_smoother').
  | At each grid point, the set of atoms used to build the partition table is smoothly restricted to
  | only those atoms whose free-atom density would be non-zero at that grid point.
  Partitioning for Hartree potential was not defined. Using partition_type for integrals.
  | Adjusted default value of keyword multip_moments_threshold to:       0.10000000E-11
  | This value may affect high angular momentum components of the Hartree potential in periodic systems.
  Spin handling was not defined in control.in. Defaulting to unpolarized case.
  Angular momentum expansion for Kerker preconditioner not set explicitly.
  | Using default value of   0
  No explicit requirement for turning off preconditioner.
  | By default, it will be turned off when the charge convergence reaches
  | sc_accuracy_rho  =   0.100000E-05
  | sc_accuracy_eev  =   0.100000E-02
  | sc_accuracy_etot =   0.100000E-05
  No special mixing parameter while Kerker preconditioner is on.
  Using default: charge_mix_param =     0.0500.
  No q(lm)/r^(l+1) cutoff set for long-range Hartree potential.
  | Using default value of  0.100000E-09 .
  | Verify using the multipole_threshold keyword.
  Defaulting to new monopole extrapolation.
  Density update method: automatic selection selected.
  Using density matrix based charge density update.
  Using density matrix based charge density update.
  Using packed matrix style: index .
  Defaulting to use time-reversal symmetry for k-point grid.
------------------------------------------------------------


------------------------------------------------------------
          Reading geometry description geometry.in.
------------------------------------------------------------
 * Warning! You did not set the 'relativistic' flag in input file 'control.in'.
 * Since you are not attempting to treat any elements beyond Ca(Z=20), FHI-aims
 * will default to 'relativistic none'.
 * You must ensure that this is really what you want!!
 * For example, DO NOT compute total-energy differences between results from
 * different settings of the 'relativistic' flag.
  Input structure read successfully.
  The structure contains      104 atoms,  and a total of       1344.000 electrons.

  Input geometry:
  | Unit cell:
  |       19.40444599        0.00000000        0.00000000
  |        0.00000000       16.10852009        0.00000000
  |        0.00000000        0.00000000        7.44719054
  | Atomic structure:
  |       Atom                x [A]            y [A]            z [A]
  |    1: Species Li            2.67823477        2.38404972        4.61541471
  |    2: Species Li            1.73241668        8.08330340        4.18921602
  |    3: Species Li            8.88317439        3.64336822        2.80659478
  |    4: Species Li            6.77722230        1.38292366        6.27639247
  |    5: Species Li            7.97609674        0.91882822        3.04166277
  |    6: Species Li            6.62670359        5.88832472        3.42852928
  |    7: Species Li           12.41546443        2.37781288        2.56677254
  |    8: Species Li           11.83799500        8.38738633        4.33728257
  |    9: Species Li           19.04503984        4.56098132        4.21478037
  |   10: Species Li           13.80175123        2.88130758        6.24355015
  |   11: Species Li           17.65692446        1.02810775        4.54204638
  |   12: Species Li           15.74230964        7.16806713        5.29277007
  |   13: Species Li            3.41516397       10.94631907        4.55646161
  |   14: Species Li            1.34413860       16.04598984        4.25557404
  |   15: Species Li            9.03189632       12.23397113        4.00411863
  |   16: Species Li            6.51214920        8.67111039        4.68393579
  |   17: Species Li            8.20353192        9.02069640        2.19667165
  |   18: Species Li            6.47268791       14.26601025        4.54660821
  |   19: Species Li           12.32961269       10.91711633        2.58449008
  |   20: Species Li           11.23191024       16.01251063        3.41694804
  |   21: Species Li            0.16344756       12.63625168        4.37218408
  |   22: Species Li           16.02504394       10.23613422        6.21724806
  |   23: Species Li           18.10311573        8.69909471        3.20464126
  |   24: Species Li           16.30813216       14.79742902        5.16633725
  |   25: Species P             8.99577759        7.06985126        4.42933011
  |   26: Species P             4.62311248        0.63604468        3.33943314
  |   27: Species P            18.87431600        7.84171615        6.26517678
  |   28: Species P            14.66875112        1.13357978        2.88143060
  |   29: Species P             9.12328758       15.41103889        5.20515385
  |   30: Species P             4.36790572        8.37706959        2.70574495
  |   31: Species P            18.88326689       15.74966390        6.38989841
  |   32: Species P            14.55724379        8.78656946        3.25163581
  |   33: Species S             1.18354638        0.72330346        6.62694880
  |   34: Species S             2.86938091        0.40863214        2.47087938
  |   35: Species S             5.39239917        2.56547563        2.26542577
  |   36: Species S             8.86199250        6.07162939        2.59392468
  |   37: Species S             7.68699192       15.19565393        6.53197781
  |   38: Species S             6.11704648        7.57129295        2.21119231
  |   39: Species S            10.67881605        6.37711989        5.40772708
  |   40: Species S             4.49639708        1.21616933        5.30166513
  |   41: Species S             0.36722650        2.60048027        2.23372313
  |   42: Species S             1.24936691        4.50234157        2.34055922
  |   43: Species S             7.06605359        2.16299249        1.29785877
  |   44: Species S             7.55636433        2.98532343        4.68643665
  |   45: Species S            10.97506979        4.57659612        4.35046424
  |   46: Species S             5.94063566        3.79593224        4.06534443
  |   47: Species S             3.05247396        4.43677583        3.31197473
  |   48: Species S             2.93210653        5.67489366        5.07210445
  |   49: Species S             0.38274902        2.17147199        4.16429087
  |   50: Species S             2.21747706        4.58500169        6.52344985
  |   51: Species S             9.72394501        1.18555854        5.02071563
  |   52: Species S            13.78550223        1.02269747        1.12000440
  |   53: Species S            15.62941555        3.11585554        2.94311338
  |   54: Species S            18.76705799        6.88110451        4.36990384
  |   55: Species S            17.21114379        0.52980286        6.85583166
  |   56: Species S            15.85545240        7.42215591        2.86516547
  |   57: Species S            18.97977897        6.32085793        0.17740206
  |   58: Species S            13.24509010        1.25369026        4.35370684
  |   59: Species S            10.08829213        1.66171271        0.36335789
  |   60: Species S             9.92102303        3.58604842        0.10971189
  |   61: Species S            16.90118903        3.29184752        4.45879756
  |   62: Species S            15.97457013        3.95125763        6.34716850
  |   63: Species S             0.15439110        4.64072548        6.57698131
  |   64: Species S            14.59779054        5.17100073        5.95504481
  |   65: Species S            11.90974784        4.28942178        7.44060148
  |   66: Species S            12.32900316        5.66928402        1.56947476
  |   67: Species S            10.19105214        1.64670796        2.38924232
  |   68: Species S            12.71482826        4.83594888        3.27298789
  |   69: Species S             1.06110402        9.06654129        6.48471892
  |   70: Species S             2.73401764        7.55840543        1.85674564
  |   71: Species S             4.60459944       10.33648352        2.02424302
  |   72: Species S             8.77435787       14.34788161        3.41680089
  |   73: Species S             7.41089821        6.83688754        5.60222733
  |   74: Species S             5.99426061       15.50477473        2.73502397
  |   75: Species S            11.01911062       14.90164194        5.87074576
  |   76: Species S             4.17215518        8.74310572        4.71705865
  |   77: Species S             1.25893354       10.89090923        1.99326635
  |   78: Species S             1.61124354       12.91045977        2.38403797
  |   79: Species S             6.53531002       10.97516847        2.27579742
  |   80: Species S             6.87743895       11.11701994        4.36140783
  |   81: Species S            10.90582097       12.85995147        5.47638177
  |   82: Species S             5.52530178       12.25073618        5.32078690
  |   83: Species S             3.37344992       13.10964136        3.49436351
  |   84: Species S             2.97264577       14.30494883        5.21876964
  |   85: Species S             0.87990951       10.29176392        3.85902879
  |   86: Species S             2.51149510       13.20846692        6.75827059
  |   87: Species S             9.53551253        9.02723881        4.41197635
  |   88: Species S            12.85691249        8.67660529        2.21858813
  |   89: Species S            15.29427245       10.61729931        2.52356612
  |   90: Species S            18.69727136       14.78220980        4.48994068
  |   91: Species S            17.15322729        8.49152147        7.03308778
  |   92: Species S            16.02020359       15.93211405        3.06246975
  |   93: Species S            18.88210798       14.24501769        0.28996087
  |   94: Species S            14.05983618        9.00381037        5.21870661
  |   95: Species S            10.25236440       12.05507928        0.81800328
  |   96: Species S            11.36073990       13.74000667        1.44267562
  |   97: Species S            17.24409866       10.84678396        2.73720301
  |   98: Species S            17.48852769       11.47485069        4.89546577
  |   99: Species S             0.47752277       12.76202077        6.74932804
  |  100: Species S            15.92911363       12.45481353        5.60760768
  |  101: Species S            13.26044390       13.10932163        1.70823099
  |  102: Species S            13.59681415       13.76866405        3.67566922
  |  103: Species S            10.00077027       10.84185075        2.31657711
  |  104: Species S            12.84909507       12.40576657        4.85719604

  Lattice parameters for 3D lattice (in Angstroms) :    19.404446   16.108520    7.447191
  Angle(s) between unit vectors (in degrees)      :    90.000000   90.000000   90.000000

  |

  | The smallest distance between any two atoms is         1.88070632 AA.
  |
  | The first atom of this pair is atom number                     62 .
  | The second atom of this pair is atom number                    64 .
  | Wigner-Seitz cell of the first atom image           0     0     0 .
  | (The Wigner-Seitz cell of the second atom is 0 0 0  by definition.)

  Symmetry information by spglib:
  | Precision set to  0.1E-04
  | Number of Operations  : 1
  | Space group           : 1
  | International         : P1
  | Schoenflies           : C1^1

  Quantities derived from the lattice vectors:
  | Reciprocal lattice vector 1:  0.323801  0.000000  0.000000
  | Reciprocal lattice vector 2:  0.000000  0.390054  0.000000
  | Reciprocal lattice vector 3:  0.000000  0.000000  0.843699
  | Unit cell volume                               :   0.232782E+04  A^3

  Range separation radius for Ewald summation (hartree_convergence_parameter):      4.05051562 bohr.

  Fractional coordinates:
                         L1                L2                L3
       atom_frac         0.13802171        0.14799930        0.61975247  Li
       atom_frac         0.08927937        0.50180298        0.56252301  Li
       atom_frac         0.45779067        0.22617647        0.37686625  Li
       atom_frac         0.34926131        0.08585045        0.84278661  Li
       atom_frac         0.41104481        0.05703989        0.40843090  Li
       atom_frac         0.34150440        0.36554101        0.46037889  Li
       atom_frac         0.63982576        0.14761212        0.34466320  Li
       atom_frac         0.61006612        0.52068013        0.58240521  Li
       atom_frac         0.98147815        0.28314093        0.56595576  Li
       atom_frac         0.71126747        0.17886855        0.83837658  Li
       atom_frac         0.90994221        0.06382385        0.60990065  Li
       atom_frac         0.81127334        0.44498608        0.71070695  Li
       atom_frac         0.17599905        0.67953599        0.61183631  Li
       atom_frac         0.06926962        0.99611819        0.57143348  Li
       atom_frac         0.46545500        0.75947207        0.53766835  Li
       atom_frac         0.33560088        0.53829342        0.62895340  Li
       atom_frac         0.42276558        0.55999535        0.29496649  Li
       atom_frac         0.33356726        0.88561893        0.61051321  Li
       atom_frac         0.63540143        0.67772311        0.34704229  Li
       atom_frac         0.57883179        0.99403983        0.45882377  Li
       atom_frac         0.00842320        0.78444523        0.58709174  Li
       atom_frac         0.82584393        0.63544846        0.83484477  Li
       atom_frac         0.93293649        0.54003066        0.43031546  Li
       atom_frac         0.84043276        0.91860884        0.69372970  Li
       atom_frac         0.46359363        0.43888894        0.59476525  P
       atom_frac         0.23825017        0.03948499        0.44841516  P
       atom_frac         0.97267997        0.48680550        0.84128058  P
       atom_frac         0.75594795        0.07037144        0.38691512  P
       atom_frac         0.47016481        0.95670110        0.69894195  P
       atom_frac         0.22509819        0.52003968        0.36332425  P
       atom_frac         0.97314125        0.97772259        0.85802805  P
       atom_frac         0.75020146        0.54546100        0.43662584  P
       atom_frac         0.06099357        0.04490192        0.88985890  S
       atom_frac         0.14787234        0.02536745        0.33178678  S
       atom_frac         0.27789503        0.15926203        0.30419871  S
       atom_frac         0.45669907        0.37692037        0.34830916  S
       atom_frac         0.39614591        0.94333023        0.87710631  S
       atom_frac         0.31523943        0.47001791        0.29691631  S
       atom_frac         0.55032831        0.39588490        0.72614324  S
       atom_frac         0.23171994        0.07549851        0.71190137  S
       atom_frac         0.01892486        0.16143508        0.29994172  S
       atom_frac         0.06438560        0.27950063        0.31428754  S
       atom_frac         0.36414611        0.13427630        0.17427495  S
       atom_frac         0.38941407        0.18532574        0.62928921  S
       atom_frac         0.56559563        0.28411028        0.58417523  S
       atom_frac         0.30614817        0.23564748        0.54588968  S
       atom_frac         0.15730797        0.27543038        0.44472808  S
       atom_frac         0.15110488        0.35229144        0.68107623  S
       atom_frac         0.01972481        0.13480270        0.55917609  S
       atom_frac         0.11427675        0.28463209        0.87596118  S
       atom_frac         0.50111943        0.07359823        0.67417580  S
       atom_frac         0.71043009        0.06348798        0.15039288  S
       atom_frac         0.80545539        0.19342904        0.39519781  S
       atom_frac         0.96715248        0.42717174        0.58678555  S
       atom_frac         0.88696909        0.03288960        0.92059302  S
       atom_frac         0.81710410        0.46075964        0.38473105  S
       atom_frac         0.97811496        0.39239222        0.02382134  S
       atom_frac         0.68258017        0.07782777        0.58461064  S
       atom_frac         0.51989591        0.10315738        0.04879127  S
       atom_frac         0.51127577        0.22261812        0.01473198  S
       atom_frac         0.87099570        0.20435444        0.59872210  S
       atom_frac         0.82324278        0.24528992        0.85229033  S
       atom_frac         0.00795648        0.28809136        0.88314933  S
       atom_frac         0.75229102        0.32101029        0.79963642  S
       atom_frac         0.61376387        0.26628280        0.99911523  S
       atom_frac         0.63537002        0.35194319        0.21074723  S
       atom_frac         0.52519161        0.10222590        0.32082465  S
       atom_frac         0.65525335        0.30021062        0.43949297  S
       atom_frac         0.05468355        0.56284136        0.87076044  S
       atom_frac         0.14089645        0.46921787        0.24932162  S
       atom_frac         0.23729610        0.64167804        0.27181298  S
       atom_frac         0.45218286        0.89070141        0.45880401  S
       atom_frac         0.38191754        0.42442679        0.75226051  S
       atom_frac         0.30891171        0.96252012        0.36725581  S
       atom_frac         0.56786525        0.92507827        0.78831685  S
       atom_frac         0.21501027        0.54276282        0.63340110  S
       atom_frac         0.06487861        0.67609620        0.26765347  S
       atom_frac         0.08303476        0.80146778        0.32012582  S
       atom_frac         0.33679447        0.68132693        0.30559140  S
       atom_frac         0.35442594        0.69013292        0.58564472  S
       atom_frac         0.56202692        0.79833227        0.73536211  S
       atom_frac         0.28474411        0.76051283        0.71446902  S
       atom_frac         0.17384933        0.81383276        0.46921903  S
       atom_frac         0.15319405        0.88803619        0.70077026  S
       atom_frac         0.04534577        0.63890189        0.51818585  S
       atom_frac         0.12942885        0.81996775        0.90749264  S
       atom_frac         0.49140865        0.56040150        0.59243500  S
       atom_frac         0.66257560        0.53863454        0.29790941  S
       atom_frac         0.78818393        0.65911078        0.33886150  S
       atom_frac         0.96355605        0.91766405        0.60290396  S
       atom_frac         0.88398439        0.52714473        0.94439477  S
       atom_frac         0.82559448        0.98904890        0.41122484  S
       atom_frac         0.97308153        0.88431573        0.03893561  S
       atom_frac         0.72456777        0.55894709        0.70076180  S
       atom_frac         0.52835131        0.74836665        0.10984052  S
       atom_frac         0.58547097        0.85296518        0.19372079  S
       atom_frac         0.88866740        0.67335695        0.36754841  S
       atom_frac         0.90126395        0.71234667        0.65735739  S
       atom_frac         0.02460894        0.79225284        0.90629184  S
       atom_frac         0.82090020        0.77318174        0.75298297  S
       atom_frac         0.68337142        0.81381291        0.22937925  S
       atom_frac         0.70070612        0.85474420        0.49356455  S
       atom_frac         0.51538551        0.67305070        0.31106725  S
       atom_frac         0.66217273        0.77013695        0.65221858  S

  Number of empty states per atom not set in control.in - providing a guess from actual geometry.
  | Total number of empty states used during s.c.f. cycle:      276
  If you use a very high smearing, use empty_states (per atom!) in control.in to increase this value.

  Structure-dependent array size parameters: 
  | Maximum number of distinct radial functions  :       43
  | Maximum number of basis functions            :     3840
  | Number of Kohn-Sham states (occupied + empty):      948
------------------------------------------------------------

------------------------------------------------------------
          Preparing all fixed parts of the calculation.
------------------------------------------------------------
  Determining machine precision:
    2.225073858507201E-308
  Setting up grids for atomic and cluster calculations.

  Creating wave function, potential, and density for free atoms.

  Species: Li

  List of occupied orbitals and eigenvalues:
    n    l              occ      energy [Ha]    energy [eV]
    1    0           2.0000        -1.901473       -51.7417
    2    0           1.0000        -0.103132        -2.8064


  Species: P

  List of occupied orbitals and eigenvalues:
    n    l              occ      energy [Ha]    energy [eV]
    1    0           2.0000       -76.356288     -2077.7603
    2    0           2.0000        -6.358286      -173.0178
    3    0           2.0000        -0.509419       -13.8620
    2    1           6.0000        -4.573976      -124.4642
    3    1           3.0000        -0.201560        -5.4847


  Species: S

  List of occupied orbitals and eigenvalues:
    n    l              occ      energy [Ha]    energy [eV]
    1    0           2.0000       -88.108280     -2397.5483
    2    0           2.0000        -7.732485      -210.4116
    3    0           2.0000        -0.629532       -17.1304
    2    1           6.0000        -5.750324      -156.4743
    3    1           4.0000        -0.257562        -7.0086


  Species: Cl

  List of occupied orbitals and eigenvalues:
    n    l              occ      energy [Ha]    energy [eV]
    1    0           2.0000      -100.710795     -2740.4802
    2    0           2.0000        -9.222997      -250.9705
    3    0           2.0000        -0.754245       -20.5241
    2    1           6.0000        -7.039872      -191.5647
    3    1           5.0000        -0.316221        -8.6048

  Creating fixed part of basis set: Ionic, confined, hydrogenic.
 
  Li                   hydrogenic:
 
  List of hydrogenic basis orbitals: 
    n    l      effective z      eigenvalue [eV]  inner max. [A]     outer max. [A]     outer radius [A]   
    2    1         1.600000        -8.7048           1.319365           1.319365           6.386418
    2    0         2.000000       -13.6052           0.203259           1.385485           6.232164
    3    2         2.600000       -10.2084           1.835332           1.835332           6.386418
    3    1         4.600000       -31.9883           0.343834           1.385485           5.381805
    2    1         1.800000       -11.0199           1.181903           1.181903           6.386418
    3    0         6.200000       -58.1113           0.062858           1.111823           4.371906
    4    2         4.700000       -18.7772           0.761113           2.401695           6.386418
    4    3         4.100000       -14.2833           2.073992           2.073992           6.386418
 
 
  P                    ion:

  List of free ionic orbitals and eigenvalues:
    n    l      energy [Ha]    energy [eV]
    1    0       -77.297133     -2103.3620
    2    0        -7.273914      -197.9333
    3    0        -1.267536       -34.4914
    2    1        -5.491316      -149.4263
    3    1        -0.913470       -24.8568


  List of ionic basis orbitals and eigenvalues:
    n    l      energy [Ha]    energy [eV]    outer radius [A]
    3    2        -0.458060       -12.4644       5.404780
    3    1        -0.913461       -24.8565       4.724723
    3    0        -1.267529       -34.4912       4.232463

 
  P                    hydrogenic:
 
  List of hydrogenic basis orbitals: 
    n    l      effective z      eigenvalue [eV]  inner max. [A]     outer max. [A]     outer radius [A]   
    4    3         6.200000       -32.6870           1.357793           1.357793           5.339109
    5    4         8.600000       -40.2502           1.534356           1.534356           5.404780
    4    2         6.200000       -32.6848           0.577014           1.820771           5.404780
 
 
  S                    ion:

  List of free ionic orbitals and eigenvalues:
    n    l      energy [Ha]    energy [eV]
    1    0       -89.127201     -2425.2745
    2    0        -8.724378      -237.4024
    3    0        -1.464668       -39.8556
    2    1        -6.744348      -183.5230
    3    1        -1.048520       -28.5317


  List of ionic basis orbitals and eigenvalues:
    n    l      energy [Ha]    energy [eV]    outer radius [A]
    3    2        -0.496514       -13.5108       5.386362
    3    0        -1.464662       -39.8555       3.967934

 
  S                    hydrogenic:
 
  List of hydrogenic basis orbitals: 
    n    l      effective z      eigenvalue [eV]  inner max. [A]     outer max. [A]     outer radius [A]   
    2    1         1.800000       -11.0118           1.168531           1.168531           5.452614
    4    3         7.000000       -41.6672           1.212182           1.212182           5.066981
    4    2         6.200000       -32.6848           0.582121           1.814567           5.386362
    5    4        10.800000       -63.4785           1.227092           1.227092           4.766538
 
 
  Cl                   ion:

  List of free ionic orbitals and eigenvalues:
    n    l      energy [Ha]    energy [eV]
    1    0      -101.807232     -2770.3157
    2    0       -10.290876      -280.0290
    3    0        -1.664625       -45.2967
    2    1        -8.110237      -220.6908
    3    1        -1.183915       -32.2160


  List of ionic basis orbitals and eigenvalues:
    n    l      energy [Ha]    energy [eV]    outer radius [A]
    3    2        -0.529392       -14.4055       5.389057
    3    0        -1.664620       -45.2966       3.780461

 
  Cl                   hydrogenic:
 
  List of hydrogenic basis orbitals: 
    n    l      effective z      eigenvalue [eV]  inner max. [A]     outer max. [A]     outer radius [A]   
    2    1         1.900000       -12.2741           1.113321           1.113321           5.389057
    4    3         7.400000       -46.5653           1.140877           1.140877           4.886961
    5    4        10.400000       -58.8635           1.273568           1.273568           4.886961
    3    2         3.300000       -16.4532           1.439178           1.439178           5.455343
 

  Adding cutoff potential to free-atom effective potential.
  Creating atomic-like basis functions for current effective potential.

  Species Li                  :

  List of atomic basis orbitals and eigenvalues:
    n    l      energy [Ha]    energy [eV]    outer radius [A]
    1    0        -1.901473       -51.7417       4.318785
    2    0        -0.103132        -2.8064       6.464971


  Species P                   :

  List of atomic basis orbitals and eigenvalues:
    n    l      energy [Ha]    energy [eV]    outer radius [A]
    1    0       -76.356288     -2077.7603       0.736837
    2    0        -6.358286      -173.0178       2.532824
    3    0        -0.509419       -13.8620       5.274236
    2    1        -4.573976      -124.4642       2.862183
    3    1        -0.201560        -5.4847       5.404780


  Species S                   :

  List of atomic basis orbitals and eigenvalues:
    n    l      energy [Ha]    energy [eV]    outer radius [A]
    1    0       -88.108280     -2397.5483       0.682391
    2    0        -7.732485      -210.4116       2.317169
    3    0        -0.629532       -17.1304       5.256262
    2    1        -5.750324      -156.4743       2.555240
    3    1        -0.257562        -7.0086       5.386362


  Species Cl                  :

  List of atomic basis orbitals and eigenvalues:
    n    l      energy [Ha]    energy [eV]    outer radius [A]
    1    0      -100.710795     -2740.4802       0.642251
    2    0        -9.222997      -250.9705       2.128190
    3    0        -0.754245       -20.5241       5.194994
    2    1        -7.039872      -191.5647       2.346844
    3    1        -0.316221        -8.6048       5.323577

  Assembling full basis from fixed parts.
  | Species Li :   atomic orbital   1 s accepted.
  | Species Li :    hydro orbital   3 s accepted.
  | Species Li :    hydro orbital   2 s accepted.
  | Species Li :   atomic orbital   2 s accepted.
  | Species Li :    hydro orbital   3 p accepted.
  | Species Li :    hydro orbital   2 p accepted.
  | Species Li :    hydro orbital   2 p accepted.
  | Species Li :    hydro orbital   3 d accepted.
  | Species Li :    hydro orbital   4 d accepted.
  | Species Li :    hydro orbital   4 f accepted.
  | Species P :   atomic orbital   1 s accepted.
  | Species P :   atomic orbital   2 s accepted.
  | Species P :    ionic orbital   3 s accepted.
  | Species P :   atomic orbital   3 s accepted.
  | Species P :   atomic orbital   2 p accepted.
  | Species P :    ionic orbital   3 p accepted.
  | Species P :   atomic orbital   3 p accepted.
  | Species P :    ionic orbital   3 d accepted.
  | Species P :    hydro orbital   4 d accepted.
  | Species P :    hydro orbital   4 f accepted.
  | Species P :    hydro orbital   5 g accepted.
  | Species S :   atomic orbital   1 s accepted.
  | Species S :   atomic orbital   2 s accepted.
  | Species S :    ionic orbital   3 s accepted.
  | Species S :   atomic orbital   3 s accepted.
  | Species S :   atomic orbital   2 p accepted.
  | Species S :   atomic orbital   3 p accepted.
  | Species S :    hydro orbital   2 p accepted.
  | Species S :    ionic orbital   3 d accepted.
  | Species S :    hydro orbital   4 d accepted.
  | Species S :    hydro orbital   4 f accepted.
  | Species S :    hydro orbital   5 g accepted.
  | Species Cl :   atomic orbital   1 s accepted.
  | Species Cl :   atomic orbital   2 s accepted.
  | Species Cl :    ionic orbital   3 s accepted.
  | Species Cl :   atomic orbital   3 s accepted.
  | Species Cl :   atomic orbital   2 p accepted.
  | Species Cl :   atomic orbital   3 p accepted.
  | Species Cl :    hydro orbital   2 p accepted.
  | Species Cl :    ionic orbital   3 d accepted.
  | Species Cl :    hydro orbital   3 d accepted.
  | Species Cl :    hydro orbital   4 f accepted.
  | Species Cl :    hydro orbital   5 g accepted.
 
  Basis size parameters after reduction:
  | Total number of radial functions:       43
  | Total number of basis functions :     3840
 
  Per-task memory consumption for arrays in subroutine allocate_ext:
  |          11.342760MB.
  Testing on-site integration grid accuracy.
  |  Species  Function  <phi|h_atom|phi> (log., in eV)  <phi|h_atom|phi> (rad., in eV)
           1        1                -51.7417001117                -51.7417000312
           1        2                 33.5927188637                 33.5926505054
           1        3                 69.1469416012                 69.1473382425
           1        4                 48.8336153902                 48.8810182289 ***
           1        5                 17.1749490570                 17.1749098864
           1        6                 32.1201183828                 32.1217831653
           1        7                  6.0166019876                  6.0249480535
           1        8                  4.9175332206                  4.9194842525
           1        9                 28.8010599263                 28.8011051086
           1       10                  9.9331480983                  9.9353515081
           2       11              -2077.7602992527              -2077.7602630746
           2       12               -173.0177635265               -173.0177629291
           2       13                -13.5620523038                -13.5620521963
           2       14                  6.3015351439                  6.3015396353
           2       15               -124.4642131574               -124.4642129967
           2       16                 -4.8468074573                 -4.8468065719
           2       17                  5.8113348591                  5.8108493787
           2       18                  5.1218113540                  5.1217878152
           2       19                 22.1386653152                 22.1386624883
           2       20                 19.3047268689                 19.3047231214
           2       21                 30.3235883931                 30.3235836780
           3       22              -2397.5482725833              -2397.5482291499
           3       23               -210.4116306505               -210.4116300246
           3       24                -16.8591546483                -16.8591544436
           3       25                  7.5848976656                  7.5849001027
           3       26               -156.4742745766               -156.4742744285
           3       27                 -7.0089268331                 -7.0089287934
           3       28                  6.8790437028                  6.8789536772
           3       29                  6.0023049431                  6.0023019693
           3       30                 19.5634804122                 19.5634829634
           3       31                 24.6809503130                 24.6809503093
           3       32                 47.5107032033                 47.5107040524
           4       33              -2740.4801671239              -2740.4801157382
           4       34               -250.9705040601               -250.9705032686
           4       35                -20.2716828479                -20.2716826054
           4       36                  9.0161300765                  9.0161279813
           4       37               -191.5646602865               -191.5646600866
           4       38                 -8.6049187754                 -8.6049181478
           4       39                  7.6458046208                  7.6458222053
           4       40                  6.9765726558                  6.9765744583
           4       41                 16.6546700656                 16.6546956458
           4       42                 28.0343243807                 28.0343233726
           4       43                 45.0370063060                 45.0370052039
 * Note: Onsite integrals marked "***" above are less accurate than
 * onsite_accuracy_threshold =    0.03000 eV. Usually, this is harmless.
 * When in doubt, tighten the "radial" and/or "radial_multiplier" flags to check.

  Preparing densities etc. for the partition functions (integrals / Hartree potential).

  Preparations completed.
  max(cpu_time)          :      0.464 s.
  Wall clock time (cpu1) :      0.482 s.
------------------------------------------------------------

------------------------------------------------------------
          Begin self-consistency loop: Initialization.

          Date     :  20220704, Time     :  080146.380
------------------------------------------------------------

  Initializing index lists of integration centers etc. from given atomic structure:
  Mapping all atomic coordinates to central unit cell.

  Initializing the k-points
          Using symmetry for reducing the k-points
  | k-points reduced from:        2 to        2
  | Number of k-points                             :         2
  The eigenvectors in the calculations are REAL.
  | Number of basis functions in the Hamiltonian integrals :     20114
  | Number of basis functions in a single unit cell        :      3840
  | Number of centers in hartree potential         :      2875
  | Number of centers in hartree multipole         :      1926
  | Number of centers in electron density summation:      1591
  | Number of centers in basis integrals           :      1683
  | Number of centers in integrals                 :       695
  | Number of centers in hamiltonian               :      1926
  | Consuming          1 KiB for k_phase.
  | Number of super-cells (origin) [n_cells]                     :         175
  | Number of super-cells (after PM_index) [n_cells]             :          46
  | Number of super-cells in hamiltonian [n_cells_in_hamiltonian]:          46
  | Size of matrix packed + index [n_hamiltonian_matrix_size] :    16128652
  Using simple linear distribution as default method for k-point parallelism.
  * Using 20 tasks for Scalapack Eigenvalue solver.
  Detailed listing of tasks and assigned k-points:
   Task     0 k-point     1 on node108
   Task     1 k-point     1 on node108
   Task     2 k-point     1 on node108
   Task     3 k-point     1 on node108
   Task     4 k-point     1 on node108
   Task     5 k-point     1 on node108
   Task     6 k-point     1 on node108
   Task     7 k-point     1 on node108
   Task     8 k-point     1 on node108
   Task     9 k-point     1 on node108
   Task    10 k-point     2 on node108
   Task    11 k-point     2 on node108
   Task    12 k-point     2 on node108
   Task    13 k-point     2 on node108
   Task    14 k-point     2 on node108
   Task    15 k-point     2 on node108
   Task    16 k-point     2 on node108
   Task    17 k-point     2 on node108
   Task    18 k-point     2 on node108
   Task    19 k-point     2 on node108
  K-point:     1 Tasks:    10 split into      5 X      2 BLACS grid
  Calculating block size based on n_basis =         3840 max_nprow =            5 max_npcol =            2
  ScaLAPACK block size set to:           16
  Allocating       11.796 MB for ovlp
  Allocating       11.796 MB for ham
  Allocating       11.796 MB for eigenvec
  Required Scalapack workspace - INTEGER:            1 REAL:             1
  Partitioning the integration grid into batches with parallel hashing+maxmin method.
  | Number of batches:    27984
  | Maximal batch size:     135
  | Minimal batch size:      52
  | Average batch size:      83.336
  | Standard deviation of batch sizes:      22.981

  Integration load balanced across    20 MPI tasks.
  Work distribution over tasks is as follows:
  Task     0 has     116612 integration points.
  Task     1 has     116595 integration points.
  Task     2 has     116620 integration points.
  Task     3 has     116636 integration points.
  Task     4 has     116631 integration points.
  Task     5 has     116570 integration points.
  Task     6 has     116622 integration points.
  Task     7 has     116630 integration points.
  Task     8 has     116620 integration points.
  Task     9 has     116616 integration points.
  Task    10 has     116594 integration points.
  Task    11 has     116651 integration points.
  Task    12 has     116635 integration points.
  Task    13 has     116614 integration points.
  Task    14 has     116613 integration points.
  Task    15 has     116547 integration points.
  Task    16 has     116610 integration points.
  Task    17 has     116573 integration points.
  Task    18 has     116547 integration points.
  Task    19 has     116544 integration points.
  Initializing partition tables, free-atom densities, potentials, etc. across the integration grid (initialize_grid_storage).
  | initialize_grid_storage: Actual outermost partition radius vs. multipole_radius_free
  | (-- VB: in principle, multipole_radius_free should be larger, hence this output)
  | Species        1: Confinement radius =              7.000000000000000 AA, multipole_radius_free =              7.042572113910259 AA.
  | Species        1: outer_partition_radius set to              7.042572113910259 AA .
  | Species        2: Confinement radius =              6.000000000000000 AA, multipole_radius_free =              6.033387558927091 AA.
  | Species        2: outer_partition_radius set to              6.033387558927091 AA .
  | Species        3: Confinement radius =              6.000000000000000 AA, multipole_radius_free =              6.012827091137924 AA.
  | Species        3: outer_partition_radius set to              6.012827091137924 AA .
  | Species        4: Confinement radius =              6.000000000000000 AA, multipole_radius_free =              6.015836048499353 AA.
  | Species        4: outer_partition_radius set to              6.015836048499353 AA .
  | Original list of interatomic distances with        1683 x       1683 entries is created.
  | Net number of integration points:  2332080
  | of which are non-zero points    :  1882945
  | Numerical average free-atom electrostatic potential    :    -10.14485024 eV
  Renormalizing the initial density to the exact electron count on the 3D integration grid.
  | Initial density: Formal number of electrons (from input files) :    1344.0000000000
  | Integrated number of electrons on 3D grid     :    1344.0000902202
[...]
  | Total energy evaluation                    :        0.003 s           0.005 s

  Partial memory accounting:
  | Current value for overall tracked memory usage on task 0  :         236.691 MB
  | Peak value for overall tracked memory usage on task 0     :         494.749 MB after allocating temp_ham_ovlp
  | Largest tracked array allocation on task 0 so far         :         129.029 MB  when allocating overlap_matrix
  Note:  These values currently only include a subset of arrays which are explicitly tracked.
  The "true" memory usage will be greater.
------------------------------------------------------------
  |------------------------------------------
  | Final ELSI Output
  |------------------------------------------
  | Number of basis functions :         3840
  | Number of electrons       :       1344.0
  | Number of spins           :            1
  | Number of k-points        :            2
  | Number of states          :          948
  | Solver                    :         ELPA
  | Parallel mode             :   MULTI_PROC
  | Matrix format             :  BLACS_DENSE
  | Matrix sparsity           :        0.160
  |------------------------------------------
  | ELSI Project (c)  elsi-interchange.org
  |------------------------------------------
  Removing unitary transformations (pure translations, rotations) from forces on atoms.
  Atomic forces before filtering:
  | Net force on center of mass :  -0.303106E-03 -0.155528E-02  0.342167E-02 eV/A
  Atomic forces after filtering:
  | Net force on center of mass :  -0.111504E-16  0.000000E+00 -0.124884E-14 eV/A

  Energy and forces in a compact form:
  | Total energy uncorrected      :         -0.859136037272078E+06 eV
  | Total energy corrected        :         -0.859136037272078E+06 eV  <-- do not rely on this value for anything but (periodic) metals
  | Electronic free energy        :         -0.859136037272078E+06 eV
  Total atomic forces (unitary forces cleaned) [eV/Ang]:
  |   1         -0.230467706187920E+00         -0.251187254640584E-02          0.637400302977959E-01
  |   2          0.747169242564038E-01         -0.126875220808304E+00          0.434562505424294E-01
  |   3          0.241163969831696E-01          0.108331624836530E+00         -0.618675781830039E-01
  |   4         -0.103315112049782E+00         -0.721827427348817E-01          0.137491168459167E+00
  |   5          0.760434094824812E-01         -0.312117418592490E+00          0.126111586985491E+00
  |   6          0.229017807987827E+00         -0.372035469944748E+00          0.439999472778217E+00
  |   7         -0.252491677575984E+00          0.278262229068974E+00         -0.417125029939396E+00
  |   8          0.119366739577328E+00         -0.663781568075960E-01          0.962846684743573E-01
  |   9         -0.115680037036134E+00         -0.561775011064026E-01         -0.677104464144907E-01
  |  10          0.345355760227923E-01         -0.184520083588675E+00          0.460229960290004E-01
  |  11         -0.671012460885010E-01         -0.353588502574311E-01         -0.328632673006283E+00
  |  12          0.118548779591685E+00          0.334999306075262E-01          0.190531435427621E+00
  |  13          0.552235836121134E-03          0.294903609073025E-02          0.652182538982067E-01
  |  14          0.722858288230590E-02          0.119703949232997E-01          0.736890213108431E-01
  |  15          0.726878676286754E-01         -0.481245095584518E+00          0.441326053575183E-01
  |  16         -0.158163803695551E+00          0.340232596427727E+00         -0.897271506759206E-01
  |  17          0.526254919308875E-01         -0.543933092601418E-01         -0.827853891148604E-01
  |  18          0.143498997206490E+00         -0.105976101955744E+00          0.448218614067303E+00
  |  19          0.250617075956369E-01          0.530954665858799E-01         -0.850492525089228E-02
  |  20          0.335542996031197E+00         -0.302592356271020E+00          0.178584319962652E+00
  |  21         -0.304194601931125E-01         -0.132533164725098E+00         -0.502218832723122E-01
  |  22         -0.420207772734979E+00          0.501784342534012E-01         -0.655443398101389E-01
  |  23         -0.883962341730144E-02          0.672282828455738E-01         -0.208974306735011E+00
  |  24          0.591580972502042E-01          0.935149530096168E-01          0.175837558740141E+00
  |  25         -0.448598245548604E+00         -0.214179543623461E+00         -0.104601112973918E+01
  |  26         -0.388769034337288E+00          0.577533867650516E+00          0.666071396415755E+00
  |  27          0.100251327877562E+01          0.873689884903476E+00         -0.136346023529367E+01
  |  28         -0.109874323045086E+01          0.160250968827877E+01          0.314195814474074E+00
  |  29         -0.390499595455946E+00         -0.556177495224106E+00         -0.952354252237859E+00
  |  30         -0.115956796918666E+01         -0.626802194125049E+00          0.138771551672616E+00
  |  31          0.138815871613189E+01          0.580023491808303E+00         -0.129834250429419E+01
  |  32         -0.462768974438818E+00          0.139402456129514E+00          0.617066299135485E+00
  |  33         -0.397732803705566E+00         -0.582262097248353E+00          0.501276968090881E-01
  |  34         -0.408735546590209E+00          0.242243670179477E+00         -0.312361593266821E+00
  |  35         -0.862598821428906E+00          0.960646938689750E+00         -0.190145747620619E+00
  |  36          0.399172721052688E-01          0.106792597925386E+01          0.379198106438245E+00
  |  37         -0.668575853193607E+00         -0.333549368003969E+00          0.440316327635433E+00
  |  38          0.689610063054821E+00          0.966781142649762E-01         -0.663002342676842E+00
  |  39          0.101440867792609E+01         -0.108123250770235E+01          0.138520873154270E+00
  |  40          0.361382685652410E+00         -0.573167803229098E+00         -0.354831462986804E-01
  |  41          0.124664513529810E+00          0.925558252600773E+00         -0.147834200791878E+01
  |  42         -0.593901628527127E+00          0.577515782952548E+00         -0.859433485774532E+00
  |  43          0.281867478680589E+00          0.188412258637630E+00         -0.331557939924866E+00
  |  44          0.206726378662073E+01         -0.947649505104392E+00          0.863659885105341E+00
  |  45         -0.359561542624339E-01         -0.172169922103950E+00          0.930710940572658E+00
  |  46         -0.234386836154672E+01          0.903161848253919E+00         -0.109367585722082E+01
  |  47          0.568880966399399E+00         -0.153900378211605E+00          0.337769401781958E+00
  |  48          0.344427560010603E+00          0.609540558343459E+00         -0.143094333217242E+01
  |  49          0.100418250830670E-02         -0.711329091460750E+00          0.159595828232938E+01
  |  50          0.218443404216122E+00         -0.114808741033578E+01          0.138458470203429E+01
  |  51          0.311051873935024E+00          0.549914364367478E+00         -0.311592855401407E-02
  |  52         -0.544914864552327E+00          0.445315001590093E+00         -0.822592714528763E+00
  |  53         -0.619609673187111E+00          0.508364373290321E+00         -0.104806009205966E+01
  |  54          0.321849402882785E+00          0.613259732608459E+00          0.755637001690281E+00
  |  55         -0.133746352876067E+01          0.663363753698979E+00          0.139015571686760E+00
  |  56          0.116502565660617E+01         -0.125803942239925E+01         -0.166843751697756E+00
  |  57          0.658270229517578E-01         -0.170943851901404E+01          0.906139731924772E+00
  |  58         -0.180735198784416E-01         -0.139292234641697E+00          0.756339519064958E+00
  |  59          0.214494278559693E+00         -0.127849548713573E+01         -0.387962339520728E+00
  |  60         -0.400176724835575E+00          0.190987275670069E+01         -0.789708476513615E+00
  |  61          0.223968198770194E+00         -0.805510700524690E-02          0.342495545995062E+00
  |  62          0.243992731114965E+01         -0.242561510586754E+01          0.901531155191534E+00
  |  63         -0.353064897691976E+00         -0.223361673258897E-01          0.480885096791849E+00
  |  64         -0.245911847134202E+01          0.231581445621817E+01         -0.655354563557772E+00
  |  65          0.239619030939331E+00          0.131669242818130E+00          0.484004979452283E+00
  |  66         -0.449718130112140E+00          0.835413870563580E+00         -0.233911553041688E+01
  |  67          0.118806725279379E+00         -0.272943001266893E+00          0.676660857825707E+00
  |  68          0.713510648552683E+00         -0.888249685867887E+00          0.142159495855719E+01
  |  69         -0.637450858359114E+00         -0.628767398804780E+00         -0.781604521587165E-01
  |  70          0.509687185630670E+00          0.541993320042049E+00          0.389111868491692E+00
  |  71         -0.551088797691961E+00          0.154073718185894E+01         -0.105993245157631E+01
  |  72          0.250512540923460E+00          0.123194536673315E+01          0.599872681264000E+00
  |  73         -0.457447638178235E+00         -0.720310443792038E+00          0.540255308545933E+00
  |  74          0.646569747607587E+00         -0.454056302520607E+00         -0.387410751018504E+00
  |  75          0.510871007943010E+00         -0.498832150292506E+00         -0.107754155958158E+00
  |  76         -0.185853737440926E-01         -0.569034733936062E+00          0.400821121561288E+00
  |  77          0.485886129631309E+00          0.881347869975314E+00         -0.112721419287026E+01
  |  78         -0.444591014742162E+00          0.588820105503423E+00         -0.592426270543234E+00
  |  79         -0.316088970062367E-01          0.143637675289992E+00         -0.341034757346711E+00
  |  80          0.464109833732999E+00         -0.399420716651766E+00          0.485566930584069E+00
  |  81          0.153770603430479E-01         -0.317560436291688E+00          0.957991577733804E-01
  |  82         -0.343976850190181E-01         -0.827093063751856E-02          0.252564276477509E+00
  |  83          0.239616846817988E+00         -0.226338306174376E+00         -0.586696248391819E-01
  |  84          0.134579252193821E+00          0.853498314521868E+00         -0.162927975162374E+01
  |  85         -0.331064080870967E+00         -0.731559188574222E+00          0.136627238258072E+01
  |  86          0.123278228985471E+00         -0.118996455776378E+01          0.147873927833070E+01
  |  87         -0.296891508581925E+00          0.121050021255469E+00         -0.136751045859484E-01
  |  88         -0.660197847019347E+00          0.176632020677555E+00         -0.654493569474831E+00
  |  89         -0.804662833606252E+00          0.113971906321524E+01         -0.818175960612941E+00
  |  90          0.141479911356597E+00          0.925350557483685E+00          0.393738525302563E+00
  |  91         -0.705808838859669E+00         -0.936651566553277E-02          0.362634672506537E+00
  |  92          0.229064918746158E+01         -0.197565719402875E+01          0.484799207277015E+00
  |  93         -0.209206937603850E+00         -0.154802492099340E+01          0.122166850902856E+01
  |  94         -0.110372274189206E+00         -0.636786124209640E-01          0.433205586959479E+00
  |  95          0.672049210121408E+00          0.179376054863373E+01         -0.159089462715034E+01
  |  96         -0.118972989942883E+01          0.234369053575958E+00         -0.490326649959496E+00
  |  97          0.510358540111897E+00          0.294141709706862E+00          0.122422705173328E+00
  |  98          0.966710412317608E+00         -0.411373989271602E+00         -0.328731227566023E+00
  |  99          0.783226316335516E-01         -0.314103459767299E+00          0.346098119935791E+00
  | 100         -0.650193555377771E+00          0.476295647032363E+00          0.313563767586168E+00
  | 101          0.874357924656695E+00         -0.118007217056257E+00         -0.260941491016466E+00
  | 102          0.384629431195889E+00          0.914953529930196E+00         -0.966584780912513E+00
  | 103         -0.569747946054360E+00         -0.133990037532378E+01          0.184302811202173E+01
  | 104         -0.561809738208603E-01         -0.128324843684052E+01          0.117393062343394E+01

  ------------------------------------ 
  Start decomposition of the XC Energy 
  ------------------------------------ 
  X and C from original XC functional choice 
  Hartree-Fock Energy :          0.000000000 Ha              0.000000000 eV
  X Energy            :      -2019.532774105 Ha         -54954.282826522 eV
  C Energy            :        -52.257509518 Ha          -1421.999184509 eV
  Total XC Energy     :      -2071.790283623 Ha         -56376.282011031 eV
  ------------------------------------ 
  LDA X and C from self-consistent density 
  X Energy LDA        :      -1871.761700129 Ha         -50933.227314572 eV
  C Energy LDA        :       -103.320352174 Ha          -2811.489829676 eV
  ------------------------------------ 
  End decomposition of the XC Energy 
  ------------------------------------ 

------------------------------------------------------------

------------------------------------------------------------------------------
  Final output of selected total energy values:

  The following output summarizes some interesting total energy values
  at the end of a run (AFTER all relaxation, molecular dynamics, etc.).

  | Total energy of the DFT / Hartree-Fock s.c.f. calculation      :        -859136.037272078 eV
  | Final zero-broadening corrected energy (caution - metals only) :        -859136.037272078 eV
  | For reference only, the value of 1 Hartree used in FHI-aims is :             27.211384500 eV

  Before relying on these values, please be sure to understand exactly which
  total energy value is referred to by a given number. Different objects may
  all carry the same name 'total energy'. Definitions:

  Total energy of the DFT / Hartree-Fock s.c.f. calculation:
  | Note that this energy does not include ANY quantities calculated after the
  | s.c.f. cycle, in particular not ANY RPA, MP2, etc. many-body perturbation terms.

  Final zero-broadening corrected energy:
  | For metallic systems only, a broadening of the occupation numbers at the Fermi
  | level can be extrapolated back to zero broadening by an electron-gas inspired
  | formula. For all systems that are not real metals, this value can be
  | meaningless and should be avoided.

------------------------------------------------------------------------------
  Methods described in the following list of references were used in this FHI-aims run.
  If you publish the results, please make sure to cite these reference if they apply.
  FHI-aims is an academic code, and for our developers (often, Ph.D. students
  and postdocs), scientific credit in the community is essential.
  Thank you for helping us!

  For any use of FHI-aims, please cite:

    Volker Blum, Ralf Gehrke, Felix Hanke, Paula Havu, Ville Havu,
    Xinguo Ren, Karsten Reuter, and Matthias Scheffler
    'Ab initio molecular simulations with numeric atom-centered orbitals'
    Computer Physics Communications 180, 2175-2196 (2009)
    http://dx.doi.org/10.1016/j.cpc.2009.06.022


  The provided symmetry information was generated with SPGlib:

    Atsushi Togo, Yusuke Seto, Dimitar Pashov
    SPGlib 1.7.3 obtained from http://spglib.sourceforge.net
    Copyright (C) 2008 Atsushi Togo


  The scalable eigensolver library ELPA was used in your run.
  ELPA is essential especially for large systems on hundreds or thousands of CPUs.
  For ELPA, please cite:

    Andreas Marek, Volker Blum, Rainer Johanni, Ville Havu, Bruno Lang,
    Thomas Auckenthaler, Alexander Heinecke, Hans-Joachim Bungartz, and Hermann Lederer,
    'The ELPA Library - Scalable Parallel Eigenvalue Solutions
    for Electronic Structure Theory and Computational Science'
    The Journal of Physics: Condensed Matter 26, 213201 (2014).
    http://dx.doi.org/10.1088/0953-8984/26/21/213201


  The ELSI infrastructure was used in your run to solve the Kohn-Sham electronic structure.
  Please check out http://elsi-interchange.org to learn more.
  If scalability is important for your project, please acknowledge ELSI by citing:

    V. W-z. Yu, F. Corsetti, A. Garcia, W. P. Huhn, M. Jacquelin, W. Jia,
    B. Lange, L. Lin, J. Lu, W. Mi, A. Seifitokaldani, A. Vazquez-Mayagoitia,
    C. Yang, H. Yang, and V. Blum
    'ELSI: A unified software interface for Kohn-Sham electronic structure solvers'
    Computer Physics Communications 222, 267-285 (2018).
    http://dx.doi.org/10.1016/j.cpc.2017.09.007


  For the real-space grid partitioning and parallelization used in this calculation, please cite:

    Ville Havu, Volker Blum, Paula Havu, and Matthias Scheffler,
    'Efficient O(N) integration for all-electron electronic structure calculation'
    'using numerically tabulated basis functions'
    Journal of Computational Physics 228, 8367-8379 (2009).
    http://dx.doi.org/10.1016/j.jcp.2009.08.008

  Of course, there are many other important community references, e.g., those cited in the
  above references. Our list is limited to references that describe implementations in the
  FHI-aims code. The reason is purely practical (length of this list) - please credit others as well.

------------------------------------------------------------
          Leaving FHI-aims.
          Date     :  20220704, Time     :  090023.494

          Computational steps:
          | Number of self-consistency cycles          :           22
          | Number of SCF (re)initializations          :            1

          Detailed time accounting                     :  max(cpu_time)    wall_clock(cpu1)
          | Total time                                 :     3517.275 s        3517.696 s
          | Preparation time                           :        0.464 s           0.482 s
          | Boundary condition initalization           :        0.873 s           0.873 s
          | Grid partitioning                          :        4.213 s           4.214 s
          | Preloading free-atom quantities on grid    :        0.035 s           0.056 s
          | Free-atom superposition energy             :        1.751 s           1.750 s
          | Total time for integrations                :      751.352 s         751.379 s
          | Total time for solution of K.-S. equations :       57.191 s          57.196 s
          | Total time for density & force components  :     2024.583 s        2024.613 s
          | Total time for mixing & preconditioning    :      252.723 s         252.869 s
          | Total time for Hartree multipole update    :        0.637 s           0.642 s
          | Total time for Hartree multipole sum       :      412.567 s         412.588 s
          | Total time for total energy evaluation     :        0.011 s           0.020 s

          Partial memory accounting:
          | Residual value for overall tracked memory usage across tasks :           0.000 MB (should be 0.000 MB)
          | Peak values for overall tracked memory usage (after allocating temp_ham_ovlp):
          |   Minimum:      494.749 MB (on task  1)
          |   Maximum:      494.749 MB (on task  1)
          |   Average:      494.749 MB
          | Largest tracked array allocation (overlap_matrix):
          |   Minimum:      129.029 MB (on task  1)
          |   Maximum:      129.029 MB (on task  1)
          |   Average:      129.029 MB
          Note:  These values currently only include a subset of arrays which are explicitly tracked.
          The "true" memory usage will be greater.

          Have a nice day.
------------------------------------------------------------
