  MPI-parallelism will be employed.
------------------------------------------------------------
          Invoking FHI-aims ...
          Version 171221_1
          Compiled on 2020/09/23 at 19:46:43 on host login.service.

          When using FHI-aims, please cite the following reference:

          Volker Blum, Ralf Gehrke, Felix Hanke, Paula Havu,
          Ville Havu, Xinguo Ren, Karsten Reuter, and Matthias Scheffler,
          'Ab Initio Molecular Simulations with Numeric Atom-Centered Orbitals',
          Computer Physics Communications 180, 2175-2196 (2009)

          For any questions about FHI-aims, please visit the aimsclub website
          with its forums and wiki. Contributions to both the forums and the
          wiki are warmly encouraged - they are for you, and everyone is welcome there.

------------------------------------------------------------



  Date     :  20220704, Time     :  070048.369
  Time zero on CPU 1             :   0.845060000000000E-01  s.
  Internal wall clock time zero  :           426150048.369  s.

  FHI-aims created a unique identifier for this run for later identification
  aims_uuid : BC1F0584-BEF5-448A-A31D-45C035527587

  Using       20 parallel tasks.
  Task        0 on host node108 reporting.
  Task        1 on host node108 reporting.
  Task        2 on host node108 reporting.
  Task        3 on host node108 reporting.
  Task        4 on host node108 reporting.
  Task        5 on host node108 reporting.
  Task        6 on host node108 reporting.
  Task        7 on host node108 reporting.
  Task        8 on host node108 reporting.
  Task        9 on host node108 reporting.
  Task       10 on host node108 reporting.
  Task       11 on host node108 reporting.
  Task       12 on host node108 reporting.
  Task       13 on host node108 reporting.
  Task       14 on host node108 reporting.
  Task       15 on host node108 reporting.
  Task       16 on host node108 reporting.
  Task       17 on host node108 reporting.
  Task       18 on host node108 reporting.
  Task       19 on host node108 reporting.

  Performing system and environment tests:
  *** Environment variable OMP_NUM_THREADS is not set
  *** For performance reasons you might want to set it to 1
  | Maximum stacksize for task 0: unlimited
  | Maximum stacksize for task 1: unlimited
  | Maximum stacksize for task 2: unlimited
  | Maximum stacksize for task 3: unlimited
  | Maximum stacksize for task 4: unlimited
  | Maximum stacksize for task 5: unlimited
  | Maximum stacksize for task 6: unlimited
  | Maximum stacksize for task 7: unlimited
  | Maximum stacksize for task 8: unlimited
  | Maximum stacksize for task 9: unlimited
  | Maximum stacksize for task 10: unlimited
  | Maximum stacksize for task 11: unlimited
  | Maximum stacksize for task 12: unlimited
  | Maximum stacksize for task 13: unlimited
  | Maximum stacksize for task 14: unlimited
  | Maximum stacksize for task 15: unlimited
  | Maximum stacksize for task 16: unlimited
  | Maximum stacksize for task 17: unlimited
  | Maximum stacksize for task 18: unlimited
  | Maximum stacksize for task 19: unlimited
  | Current stacksize for task 0: unlimited
  | Current stacksize for task 1: unlimited
  | Current stacksize for task 2: unlimited
  | Current stacksize for task 3: unlimited
  | Current stacksize for task 4: unlimited
  | Current stacksize for task 5: unlimited
  | Current stacksize for task 6: unlimited
  | Current stacksize for task 7: unlimited
  | Current stacksize for task 8: unlimited
  | Current stacksize for task 9: unlimited
  | Current stacksize for task 10: unlimited
  | Current stacksize for task 11: unlimited
  | Current stacksize for task 12: unlimited
  | Current stacksize for task 13: unlimited
  | Current stacksize for task 14: unlimited
  | Current stacksize for task 15: unlimited
  | Current stacksize for task 16: unlimited
  | Current stacksize for task 17: unlimited
  | Current stacksize for task 18: unlimited
  | Current stacksize for task 19: unlimited
  | Checking for scalapack...
  | Testing pdtran()...
  | All pdtran() tests passed.

  Obtaining array dimensions for all initial allocations:
  
  -----------------------------------------------------------------------
  Parsing control.in (first pass over file, find array dimensions only).
  The contents of control.in will be repeated verbatim below
  unless switched off by setting 'verbatim_writeout .false.' .
  in the first line of control.in .
  -----------------------------------------------------------------------
  
  #===============================================================================
  # FHI-aims file: ./control.in
  # Created using the Atomic Simulation Environment (ASE)
  # Wed Mar 24 12:41:28 2021
  #===============================================================================
  xc                                 pbe
  sc_accuracy_etot                   1e-06
  sc_accuracy_eev                    0.001
  sc_accuracy_rho                    1e-06
  sc_accuracy_forces                 0.0001
  friction_temperature               300  # default 300
  
    k_grid                           1  1  2
  
  
  
  ################################################################################
  #
  #  FHI-aims code project
  # Volker Blum, Fritz Haber Institute Berlin, 2009
  #
  #  Suggested "tight" defaults for Li atom (to be pasted into control.in file)
  #
  #  2016/03/22: Increased cutoff radius to 5.0 AA (Xinguo Ren, Aug 15, 2015)
  #
  ################################################################################
    species        Li
  #     global species definitions
      nucleus             3
      mass                6.941
  #
      l_hartree           6
  #
      cut_pot             5.0  2.0  1.0
      basis_dep_cutoff    1e-4
  #
      radial_base         29 7.0
      radial_multiplier   2
      angular_grids       specified
        division   0.4484  110
        division   0.5659  194
        division   0.6315  302
        division   0.6662  434
  #      division   0.8186  590
  #      division   0.9037  770
  #      division   6.2760  974
  #      outer_grid   974
        outer_grid  434
  ################################################################################
  #
  #  Definition of "minimal" basis
  #
  ################################################################################
  #     valence basis states
      valence      2  s   1.
  #     ion occupancy
      ion_occ      1  s   2.
  ################################################################################
  #
  #  Suggested additional basis functions. For production calculations,
  #  uncomment them one after another (the most important basis functions are
  #  listed first).
  #
  #  Constructed for dimers: 1.80 A, 2.25 A, 2.75 A, 3.50 A, 4.50 A
  #
  ################################################################################
  #  "First tier" - improvements: -189.23 meV to -6.35 meV
       hydro 2 p 1.6
       hydro 2 s 2
       hydro 3 d 2.6
  #  "Second tier" - improvements: -4.69 meV to -0.41 meV
       hydro 3 p 4.6
       hydro 2 p 1.8
       hydro 3 s 6.2
       hydro 4 d 4.7
       hydro 4 f 4.1
  #  "Third tier" - improvements: -0.20 meV to -0.15 meV
  #     hydro 4 d 0.95
  #     hydro 3 p 6.2
  #     hydro 3 s 1.7
  #  Further functions, listed for completeness
  #     VB: The following functions are only listed for completeness; test very
  #         carefully before any kind of production use. From the point of view
  #         of the basis construction, their main role is to fill up space,
  #         and they are solely determined by the location of the cutoff potential.
  #     hydro 3 p 0.1  # -0.15 meV
  #     hydro 4 d 5    # -0.12 meV
  #     hydro 4 f 0.1  # -0.14 meV
  #     hydro 5 g 0.1  # -0.06 meV
  
  
  ################################################################################
  #
  # For methods that use the localized form of the "resolution of identity" for
  # the two-electron Coulomb operator (RI_method LVL), particularly Hartree-Fock and
  # hybrid density functional calculations, the highest accuracy can be obtained by
  # uncommenting the line beginning with "for_aux"  below, thus adding an extra g radial
  # function to the construction of the product basis set for the expansion.
  # See Ref. New J. Phys. 17, 093020 (2015) for more information, particularly Figs. 1 and 6.
  #
  ################################################################################
  #
  # for_aux hydro 5 g 6.0
  ################################################################################
  #
  #  FHI-aims code project
  # Volker Blum, Fritz Haber Institute Berlin, 2010
  #
  #  Suggested "tight" defaults for P atom (to be pasted into control.in file)
  #
  #  Revised Jan 04, 2011, following tests (SiC) done by Lydia Nemec:
  #     d function of tier 2 now enabled by default.
  #
  ################################################################################
    species        P
  #     global species definitions
      nucleus             15
      mass                30.973762
  #
      l_hartree           6
  #
      cut_pot             4.0          2.0  1.0
      basis_dep_cutoff    1e-4
  #
      radial_base         43 7.0
      radial_multiplier   2
      angular_grids       specified
        division   0.2995   50
        division   0.5998  110
        division   0.9240  194
        division   1.0921  302
        division   1.2863  434
  #      division   1.3165  590
  #      division   1.4113  770
  #      division   1.5128  974
  #      division   2.4980 1202
        outer_grid  434
  ################################################################################
  #
  #  Definition of "minimal" basis
  #
  ################################################################################
  #     valence basis states
      valence      3  s   2.
      valence      3  p   3.
  #     ion occupancy
      ion_occ      3  s   1.
      ion_occ      3  p   2.
  ################################################################################
  #
  #  Suggested additional basis functions. For production calculations,
  #  uncomment them one after another (the most important basis functions are
  #  listed first).
  #
  #  Constructed for dimers: 1.625 A, 1.875 A, 2.5 A, 3.25 A, 4.0 A
  #
  ################################################################################
  #  "First tier" - improvements: -726.20 meV to -35.91 meV
       ionic 3 d auto
       ionic 3 p auto
       hydro 4 f 6.2
       hydro 5 g 8.6
       ionic 3 s auto
  #  "Second tier" - improvements: -16.02 meV to -1.71 meV
       hydro 4 d 6.2
  #     hydro 4 p 9.2
  #     hydro 5 f 9.8
  #     hydro 1 s 0.7
  #     hydro 5 g 13.2
  #  "Third tier" - improvements: -1.82 meV to -0.20 meV
  #     hydro 3 p 2.5
  #     hydro 4 d 6.4
  #     hydro 5 f 11.2
  #     hydro 2 s 1.5
  #  "Fourth tier" - improvements: -0.91 meV to -0.17 meV
  #     hydro 3 d 16.8
  #     hydro 5 g 18
  #     hydro 4 p 4.5
  #     hydro 3 s 2.1
  #  Further basis functions that fell out of the optimization - < -0.09 meV
  #     hydro 4 p 10.4
  #     hydro 4 d 17.6
  #     hydro 4 s 11.2
  ################################################################################
  #
  # For methods that use the localized form of the "resolution of identity" for
  # the two-electron Coulomb operator (RI_method LVL), particularly Hartree-Fock and
  # hybrid density functional calculations, the highest accuracy can be obtained by
  # uncommenting the line beginning with "for_aux"  below, thus adding an extra g radial
  # function to the construction of the product basis set for the expansion.
  # See Ref. New J. Phys. 17, 093020 (2015) for more information, particularly Figs. 1 and 6.
  #
  ################################################################################
  #
  # for_aux hydro 5 g 6.0
  ################################################################################
  #
  #  FHI-aims code project
  # Volker Blum, Fritz Haber Institute Berlin, 2009
  #
  #  Suggested "tight" defaults for S atom (to be pasted into control.in file)
  #
  #  Revised Jan 04, 2011, following tests (SiC) done by Lydia Nemec:
  #     d and g functions of tier 2 now enabled by default.
  #
  ################################################################################
    species        S
  #     global species definitions
      nucleus             16
      mass                32.065
  #
      l_hartree           6
  #
      cut_pot             4.0          2.0  1.0
      basis_dep_cutoff    1e-4
  #
      radial_base         44 7.0
      radial_multiplier   2
      angular_grids       specified
        division   0.4665  110
        division   0.5810  194
        division   0.7139  302
        division   0.8274  434
  #      division   0.9105  590
  #      division   1.0975  770
  #      division   1.2028  974
  #      outer_grid  974
        outer_grid  434
  ################################################################################
  #
  #  Definition of "minimal" basis
  #
  ################################################################################
  #     valence basis states
      valence      3  s   2.
      valence      3  p   4.
  #     ion occupancy
      ion_occ      3  s   1.
      ion_occ      3  p   3.
  ################################################################################
  #
  #  Suggested additional basis functions. For production calculations,
  #  uncomment them one after another (the most important basis functions are
  #  listed first).
  #
  #  Constructed for dimers: 1.6 A, 1.9 A, 2.5 A, 3.25 A, 4.0 A
  #
  ################################################################################
  #  "First tier" - improvements: -652.81 meV to -45.53 meV
       ionic 3 d auto
       hydro 2 p 1.8
       hydro 4 f 7
       ionic 3 s auto
  #  "Second tier" - improvements: -30.20 meV to -1.74 meV
       hydro 4 d 6.2
       hydro 5 g 10.8
  #     hydro 4 p 4.9
  #     hydro 5 f 10
  #     hydro 1 s 0.8
  #  "Third tier" - improvements: -1.04 meV to -0.20 meV
  #     hydro 3 d 3.9
  #     hydro 3 d 2.7
  #     hydro 5 g 12
  #     hydro 4 p 10.4
  #     hydro 5 f 12.4
  #     hydro 2 s 1.9
  #  "Fourth tier" - improvements: -0.35 meV to -0.06 meV
  #     hydro 4 d 10.4
  #     hydro 4 p 7.2
  #     hydro 4 d 10
  #     hydro 5 g 19.2
  #     hydro 4 s 12
  
  ################################################################################
  #
  # For methods that use the localized form of the "resolution of identity" for
  # the two-electron Coulomb operator (RI_method LVL), particularly Hartree-Fock and
  # hybrid density functional calculations, the highest accuracy can be obtained by
  # uncommenting the line beginning with "for_aux"  below, thus adding an extra g radial
  # function to the construction of the product basis set for the expansion.
  # See Ref. New J. Phys. 17, 093020 (2015) for more information, particularly Figs. 1 and 6.
  #
  ################################################################################
  #
  # for_aux hydro 5 g 6.0
  ################################################################################
  #
  #  FHI-aims code project
  # Volker Blum, Fritz Haber Institute Berlin, 2009
  #
  #  Suggested "tight" defaults for Cl atom (to be pasted into control.in file)
  #
  #  Revised Jan 04, 2011, following tests (SiC) done by Lydia Nemec:
  #     d function of tier 2 now enabled by default.
  #
  ################################################################################
    species        Cl
  #     global species definitions
      nucleus             17
      mass                35.453
  #
      l_hartree           6
  #
      cut_pot             4.0          2.0  1.0
      basis_dep_cutoff    1e-4
  #
      radial_base         45 7.0
      radial_multiplier   2
      angular_grids       specified
        division   0.4412  110
        division   0.5489  194
        division   0.6734  302
        division   0.7794  434
  #      division   0.9402  590
  #      division   1.0779  770
  #      division   1.1792  974
  #      outer_grid  974
        outer_grid  434
  ################################################################################
  #
  #  Definition of "minimal" basis
  #
  ################################################################################
  #     valence basis states
      valence      3  s   2.
      valence      3  p   5.
  #     ion occupancy
      ion_occ      3  s   1.
      ion_occ      3  p   4.
  ################################################################################
  #
  #  Suggested additional basis functions. For production calculations,
  #  uncomment them one after another (the most important basis functions are
  #  listed first).
  #
  #  Constructed for dimers: 1.65 A, 2.0 A, 2.5 A, 3.25 A, 4.0 A
  #
  ################################################################################
  #  "First tier" - improvements: -429.57 meV to -15.03 meV
       ionic 3 d auto
       hydro 2 p 1.9
       hydro 4 f 7.4
       ionic 3 s auto
       hydro 5 g 10.4
  #  "Second tier" - improvements: -7.84 meV to -0.48 meV
       hydro 3 d 3.3
  #     hydro 5 f 9.8
  #     hydro 1 s 0.75
  #     hydro 5 g 11.2
  #     hydro 4 p 10.4
  #  "Third tier" - improvements: -1.00 meV to -0.12 meV
  #     hydro 4 d 12.8
  #     hydro 4 f 4.6
  #     hydro 4 d 10.8
  #     hydro 2 s 1.8
  #     hydro 3 p 3
  #  Further functions that fell out - improvements: -0.10 meV and below
  #     hydro 5 f 14.4
  #     hydro 4 s 12.8
  #     hydro 3 d 11.6
  #     hydro 4 s 4.1
  ################################################################################
  #
  # For methods that use the localized form of the "resolution of identity" for
  # the two-electron Coulomb operator (RI_method LVL), particularly Hartree-Fock and
  # hybrid density functional calculations, the highest accuracy can be obtained by
  # uncommenting the line beginning with "for_aux"  below, thus adding an extra g radial
  # function to the construction of the product basis set for the expansion.
  # See Ref. New J. Phys. 17, 093020 (2015) for more information, particularly Figs. 1 and 6.
  #
  ################################################################################
  #
  # for_aux hydro 5 g 6.0
  
  -----------------------------------------------------------------------
  Completed first pass over input file control.in .
  -----------------------------------------------------------------------
  
  
  -----------------------------------------------------------------------
  Parsing geometry.in (first pass over file, find array dimensions only).
  The contents of geometry.in will be repeated verbatim below
  unless switched off by setting 'verbatim_writeout .false.' .
  in the first line of geometry.in .
  -----------------------------------------------------------------------
  
  #=======================================================
  # FHI-aims file: ./data/test_rep/geometry.in.2
  # Created using the Atomic Simulation Environment (ASE)
  # Mon Jul  4 10:21:46 2022
  #=======================================================
  lattice_vector 19.2064414405979988 0.0000000000000000 0.0000000000000000
  lattice_vector 0.0000000000000000 15.9441474342169993 0.0000000000000000
  lattice_vector 0.0000000000000000 0.0000000000000000 7.3711988020189994
  atom 2.6509058433399999 2.3597226840599999 4.5683186396499993 Li
  atom 1.7147389631899999 8.0008207107799993 4.1464689182500001 Li
  atom 8.7925297492299990 3.6061909918399997 2.7779560592199997 Li
  atom 6.7080669682899998 1.3688121913299998 6.2123476505799999 Li
  atom 7.8947080001900005 0.9094524224900000 3.0106253914899996 Li
  atom 6.5590841648599998 5.8282397746100001 3.3935442880199997 Li
  atom 12.2887760173499991 2.3535494789299998 2.5405809872899998 Li
  atom 11.7171991290699982 8.3018007517200001 4.2930245828299993 Li
  atom 18.8507027022200013 4.5144406938700001 4.1717724061499997 Li
  atom 13.6609170362499999 2.8519064856300003 6.1798404547699999 Li
  atom 17.4767517651699968 1.0176168576800000 4.4956989649699999 Li
  atom 15.5816738280199996 7.0949235885499995 5.2387622124200002 Li
  atom 3.3803153581799998 10.8346219320400010 4.5099671062499995 Li
  atom 1.3304228980599999 15.8822552493999982 4.2121498172399994 Li
  atom 8.9397341168299995 12.1091346897000012 3.9632602778599999 Li
  atom 6.4456987027299997 8.5826296712199994 4.6361405284600004 Li
  atom 8.1198224088900002 8.9286484747399992 2.1742566305700000 Li
  atom 6.4066400784199997 14.1204387126400004 4.5002142441599995 Li
  atom 12.2038003129200003 10.8057171814000004 2.5581177298099997 Li
  atom 11.1172989149399992 15.8491176612600011 3.3820812257199999 Li
  atom 0.1617797311600000 12.5073103408400002 4.3275699600999999 Li
  atom 15.8615230853499991 10.1316838665800013 6.1538067537799996 Li
  atom 17.9183900549899988 8.6103284344399995 3.1719408379699998 Li
  atom 16.1417226494499992 14.6464348479299993 5.1136195238499997 Li
  atom 8.9039839452400003 6.9977099227699995 4.3841328678199991 P
  atom 4.5759378645200002 0.6295544246000000 3.3053572918900000 P
  atom 18.6817209354300005 7.7616986416899989 6.2012464002199996 P
  atom 14.5190699853900007 1.1220126391699998 2.8520282506999997 P
  atom 9.0301928073699997 15.2537833865099994 5.1520400355999998 P
  atom 4.3233352563200000 8.2915892920599994 2.6781353118300002 P
  atom 18.6905804886299975 15.5889530484900014 6.3246953650000002 P
  atom 14.4087004812099995 8.6969105878799997 3.2184558561599999 P
  atom 1.1714693753900001 0.7159228104099999 6.5593268685599995 S
  atom 2.8401015090000001 0.4044624219300000 2.4456663262700000 S
  atom 5.3373746851300004 2.5392973077200001 2.2423091824700001 S
  atom 8.7715640072400003 6.0096739862400002 2.5674560575499998 S
  atom 7.6085532229399995 15.0405962394300001 6.4653249736599996 S
  atom 6.0546276419899998 7.4940348541599997 2.1886291196000003 S
  atom 10.5698485417800008 6.3120472333299995 5.3525461874099998 S
  atom 4.4505154754799996 1.2037594367000000 5.2475665018099997 S
  atom 0.3634792924000000 2.5739447571199996 2.2109300365199998 S
  atom 1.2366182633300000 4.4563993082700000 2.3166759629499998 S
  atom 6.9939510030199994 2.1409211352699997 1.2846153115399999 S
  atom 7.4792585706199999 2.9548609499399996 4.6386158695200006 S
  atom 10.8630792856999996 4.5298961578299997 4.3060717482499999 S
  atom 5.8800169263999997 3.7571982376499999 4.0238613227400002 S
  atom 3.0213262665900000 4.3915026077199997 3.2781790646199997 S
  atom 2.9021870748600000 5.6169865795799998 5.0203482804799995 S
  atom 0.3788434172800000 2.1493141087700001 4.1217981050899999 S
  atom 2.1948497431800003 4.5382159555000001 6.4568840336599997 S
  atom 9.6247210800199987 1.1734610046100000 4.9694838414599998 S
  atom 13.6448338377600003 1.0122617806200001 1.1085757801300000 S
  atom 15.4699317166099988 3.0840610990399999 2.9130816143400002 S
  atom 18.5755574007199975 6.8108891536999998 4.3253129796199996 S
  atom 17.0355198772200005 0.5243967042300000 6.7858741903600004 S
  atom 15.6936620701399985 7.3464196275399996 2.8359290869799998 S
  atom 18.7861077512100003 6.2563593771599999 0.1755918395500000 S
  atom 13.1099361211099996 1.2408975027200000 4.3092812561199993 S
  atom 9.9853503737100002 1.6447564556399998 0.3596501562900000 S
  atom 9.8197881032999987 3.5494560934199999 0.1085923797900000 S
  atom 16.7287279134699993 3.2582572434199997 4.4132996280699999 S
  atom 15.8115643139900008 3.9109386767099998 6.2824014764099996 S
  atom 0.1528156788900000 4.5933711429599997 6.5098692525499997 S
  atom 14.4488334940099996 5.1182354172599993 5.8942790478599996 S
  atom 11.7882198043400006 4.2456521719399998 7.3646769762700002 S
  atom 12.2031970068699991 5.6114341870599995 1.5534597074100001 S
  atom 10.0870618082399996 1.6299048166800001 2.3648622969599997 S
  atom 12.5850851096199996 4.7866024654899997 3.2395900590199997 S
  atom 1.0502764240000000 8.9740255587700002 6.4185483183400001 S
  atom 2.7061195014299999 7.4812788449100003 1.8377992606100000 S
  atom 4.5576137342000003 10.2310091990799990 2.0035874789400001 S
  atom 8.6848236050899992 14.2014746514899990 3.3819355792499999 S
  atom 7.3352767952199995 6.7671233793500001 5.5450617420899997 S
  atom 5.9330946871699997 15.3465627419100006 2.7071155643600000 S
  atom 10.9066707180700000 14.7495843705100000 5.8108401900900004 S
  atom 4.1295821688499998 8.6538903594099992 4.6689253993800000 S
  atom 1.2460872762599999 10.7797775073600004 1.9729269021999998 S
  atom 1.5948022791699998 12.7787203886499992 2.3597110479399999 S
  atom 6.4686231841500001 10.8631769549999984 2.2525749941400002 S
  atom 6.8072610025599998 11.0035809610599991 4.3169036732600006 S
  atom 10.7945370874999984 12.7287274771700005 5.4205003231099997 S
  atom 5.4689211449200004 12.1257286688499999 5.2664931515099997 S
  atom 3.3390269638299999 12.9758695101400008 3.4587067443200001 S
  atom 2.9423126458200000 14.1589799632000002 5.1655168925900004 S
  atom 0.8709308445000000 10.1867459194899990 3.8196509455999998 S
  atom 2.4858676018499999 13.0736866449299995 6.6893086436599996 S
  atom 9.4382113850999989 8.9351241268399999 4.3669561795999998 S
  atom 12.7257195100799994 8.5880684971100010 2.1959494777700002 S
  atom 15.1382084491099995 10.5089595242699989 2.4978154478400003 S
  atom 18.5064828733099986 14.6313709254400006 4.4441249631900002 S
  atom 16.9781943613199999 8.4048732960700008 6.9613215775099997 S
  atom 15.8567321263399990 15.7695414530999987 3.0312200628899997 S
  atom 18.6894334063999992 14.0996603639800000 0.2870020877700000 S
  atom 13.9163684626699986 8.9119347520000005 5.1654545041300004 S
  atom 10.1477484362200006 11.9320682648799998 0.8096563072800000 S
  atom 11.2448139858599987 13.5998025238099984 1.4279544386600000 S
  atom 17.0681384678299999 10.7361024910600005 2.7092723710000000 S
  atom 17.3100733215800027 11.3577603784599983 4.8455120398900000 S
  atom 0.4726500909500000 12.6317960639300004 6.6804573432199996 S
  atom 15.7665716545399999 12.3277235999400006 5.5503871963200000 S
  atom 13.1251332498199993 12.9755530447299989 1.6908000645000001 S
  atom 13.4580711435599998 13.6281674781800000 3.6381623906899998 S
  atom 9.8987215894599991 10.7312196177600008 2.2929385652700001 S
  atom 12.7179818530599995 12.2791771136599994 4.8076328172400000 S
  
  -----------------------------------------------------------------------
  Completed first pass over input file geometry.in .
  -----------------------------------------------------------------------
  

  Basic array size parameters:
  | Number of species                 :        4
  | Number of atoms                   :      104
  | Number of lattice vectors         :        3
  | Max. basis fn. angular momentum   :        4
  | Max. atomic/ionic basis occupied n:        3
  | Max. number of basis fn. types    :        3
  | Max. radial fns per species/type  :        8
  | Max. logarithmic grid size        :     1362
  | Max. radial integration grid size :       91
  | Max. angular integration grid size:      434
  | Max. angular grid division number :        8
  | Radial grid for Hartree potential :     1362
  | Number of spin channels           :        1

------------------------------------------------------------
          Reading file control.in.
------------------------------------------------------------
  XC: Using PBE gradient-corrected functionals.
  Convergence accuracy of total energy:  0.1000E-05
  Convergence accuracy of sum of eigenvalues:  0.1000E-02
  Convergence accuracy of self-consistent charge density:  0.1000E-05
  Convergence accuracy of forces:  0.1000E-03
  Friction is calculated at temperature of   0.3000E+03 K
  Found k-point grid:         1         1         2
 
  Reading configuration options for species Li                  .
  | Found nuclear charge :   3.0000
  | Found atomic mass :    6.94100000000000      amu
  | Found l_max for Hartree potential  :   6
  | Found cutoff potl. onset [A], width [A], scale factor :    5.00000    2.00000    1.00000
  | Threshold for basis-dependent cutoff potential is   0.100000E-03
  | Found data for basic radial integration grid :    29 points, outermost radius =    7.000 A
  | Found multiplier for basic radial grid :   2
  | Found angular grid specification: user-specified.
  | Specified grid contains     5 separate shells.
  | Check grid settings after all constraints further below.
  | Found free-atom valence shell :  2 s   1.000
  | Found free-ion valence shell :  1 s   2.000
  | Found hydrogenic basis function :  2 p   1.600
  | Found hydrogenic basis function :  2 s   2.000
  | Found hydrogenic basis function :  3 d   2.600
  | Found hydrogenic basis function :  3 p   4.600
  | Found hydrogenic basis function :  2 p   1.800
  | Found hydrogenic basis function :  3 s   6.200
  | Found hydrogenic basis function :  4 d   4.700
  | Found hydrogenic basis function :  4 f   4.100
  Species Li                  : Missing cutoff potential type.
  Defaulting to exp(1/x)/(1-x)^2 type cutoff potential.
  Species Li: No 'logarithmic' tag. Using default grid for free atom:
  | Default logarithmic grid data [bohr] : 0.1000E-03 0.1000E+03 0.1012E+01
  Species Li: On-site basis accuracy parameter (for Gram-Schmidt orthonormalisation) not specified.
  Using default value basis_acc =  0.1000000E-03.
  Species Li                  : Using default innermost maximum threshold i_radial=  2 for radial functions.
  Species Li                  : Default cutoff onset for free atom density etc. : 0.50000000E+01 AA.
  Species Li                  : Basic radial grid will be enhanced according to radial_multiplier =   2, to contain    59 grid points.
 
  Reading configuration options for species P                   .
  | Found nuclear charge :  15.0000
  | Found atomic mass :    30.9737620000000      amu
  | Found l_max for Hartree potential  :   6
  | Found cutoff potl. onset [A], width [A], scale factor :    4.00000    2.00000    1.00000
  | Threshold for basis-dependent cutoff potential is   0.100000E-03
  | Found data for basic radial integration grid :    43 points, outermost radius =    7.000 A
  | Found multiplier for basic radial grid :   2
  | Found angular grid specification: user-specified.
  | Specified grid contains     6 separate shells.
  | Check grid settings after all constraints further below.
  | Found free-atom valence shell :  3 s   2.000
  | Found free-atom valence shell :  3 p   3.000
  | Found free-ion valence shell :  3 s   1.000
  | Found free-ion valence shell :  3 p   2.000
  | Found ionic basis function :  3 d , default cutoff radius.
  | Found ionic basis function :  3 p , default cutoff radius.
  | Found hydrogenic basis function :  4 f   6.200
  | Found hydrogenic basis function :  5 g   8.600
  | Found ionic basis function :  3 s , default cutoff radius.
  | Found hydrogenic basis function :  4 d   6.200
  Species P                   : Missing cutoff potential type.
  Defaulting to exp(1/x)/(1-x)^2 type cutoff potential.
  Species P : No 'logarithmic' tag. Using default grid for free atom:
  | Default logarithmic grid data [bohr] : 0.1000E-03 0.1000E+03 0.1012E+01
  | Will include ionic basis functions of  2.0-fold positive P                    ion.
  Species P : On-site basis accuracy parameter (for Gram-Schmidt orthonormalisation) not specified.
  Using default value basis_acc =  0.1000000E-03.
  Species P                   : Using default innermost maximum threshold i_radial=  2 for radial functions.
  Species P                   : Default cutoff onset for free atom density etc. : 0.40000000E+01 AA.
  Species P                   : Basic radial grid will be enhanced according to radial_multiplier =   2, to contain    87 grid points.
 
  Reading configuration options for species S                   .
  | Found nuclear charge :  16.0000
  | Found atomic mass :    32.0650000000000      amu
  | Found l_max for Hartree potential  :   6
  | Found cutoff potl. onset [A], width [A], scale factor :    4.00000    2.00000    1.00000
  | Threshold for basis-dependent cutoff potential is   0.100000E-03
  | Found data for basic radial integration grid :    44 points, outermost radius =    7.000 A
  | Found multiplier for basic radial grid :   2
  | Found angular grid specification: user-specified.
  | Specified grid contains     5 separate shells.
  | Check grid settings after all constraints further below.
  | Found free-atom valence shell :  3 s   2.000
  | Found free-atom valence shell :  3 p   4.000
  | Found free-ion valence shell :  3 s   1.000
  | Found free-ion valence shell :  3 p   3.000
  | Found ionic basis function :  3 d , default cutoff radius.
  | Found hydrogenic basis function :  2 p   1.800
  | Found hydrogenic basis function :  4 f   7.000
  | Found ionic basis function :  3 s , default cutoff radius.
  | Found hydrogenic basis function :  4 d   6.200
  | Found hydrogenic basis function :  5 g  10.800
  Species S                   : Missing cutoff potential type.
  Defaulting to exp(1/x)/(1-x)^2 type cutoff potential.
  Species S : No 'logarithmic' tag. Using default grid for free atom:
  | Default logarithmic grid data [bohr] : 0.1000E-03 0.1000E+03 0.1012E+01
  | Will include ionic basis functions of  2.0-fold positive S                    ion.
  Species S : On-site basis accuracy parameter (for Gram-Schmidt orthonormalisation) not specified.
  Using default value basis_acc =  0.1000000E-03.
  Species S                   : Using default innermost maximum threshold i_radial=  2 for radial functions.
  Species S                   : Default cutoff onset for free atom density etc. : 0.40000000E+01 AA.
  Species S                   : Basic radial grid will be enhanced according to radial_multiplier =   2, to contain    89 grid points.
 
  Reading configuration options for species Cl                  .
  | Found nuclear charge :  17.0000
  | Found atomic mass :    35.4530000000000      amu
  | Found l_max for Hartree potential  :   6
  | Found cutoff potl. onset [A], width [A], scale factor :    4.00000    2.00000    1.00000
  | Threshold for basis-dependent cutoff potential is   0.100000E-03
  | Found data for basic radial integration grid :    45 points, outermost radius =    7.000 A
  | Found multiplier for basic radial grid :   2
  | Found angular grid specification: user-specified.
  | Specified grid contains     5 separate shells.
  | Check grid settings after all constraints further below.
  | Found free-atom valence shell :  3 s   2.000
  | Found free-atom valence shell :  3 p   5.000
  | Found free-ion valence shell :  3 s   1.000
  | Found free-ion valence shell :  3 p   4.000
  | Found ionic basis function :  3 d , default cutoff radius.
  | Found hydrogenic basis function :  2 p   1.900
  | Found hydrogenic basis function :  4 f   7.400
  | Found ionic basis function :  3 s , default cutoff radius.
  | Found hydrogenic basis function :  5 g  10.400
  | Found hydrogenic basis function :  3 d   3.300
  Species Cl                  : Missing cutoff potential type.
  Defaulting to exp(1/x)/(1-x)^2 type cutoff potential.
  Species Cl: No 'logarithmic' tag. Using default grid for free atom:
  | Default logarithmic grid data [bohr] : 0.1000E-03 0.1000E+03 0.1012E+01
  | Will include ionic basis functions of  2.0-fold positive Cl                   ion.
  Species Cl: On-site basis accuracy parameter (for Gram-Schmidt orthonormalisation) not specified.
  Using default value basis_acc =  0.1000000E-03.
  Species Cl                  : Using default innermost maximum threshold i_radial=  2 for radial functions.
  Species Cl                  : Default cutoff onset for free atom density etc. : 0.40000000E+01 AA.
  Species Cl                  : Basic radial grid will be enhanced according to radial_multiplier =   2, to contain    91 grid points.
 
  Finished reading input file 'control.in'. Consistency checks are next.
 
  MPI_IN_PLACE appears to work with this MPI implementation.
  | Keeping use_mpi_in_place .true. (see manual).
  Target number of points in a grid batch is not set. Defaulting to  100
  Method for grid partitioning is not set. Defaulting to parallel hash+maxmin partitioning.
  Batch size limit is not set. Defaulting to    200
  By default, will store active basis functions for each batch.
  If in need of memory, prune_basis_once .false. can be used to disable this option.
  communication_type for Hartree potential was not specified.
  Defaulting to calc_hartree .
  Defaulting to Pulay charge density mixer.
  Pulay mixer: Number of relevant iterations not set.
  Defaulting to    8 iterations.
  Pulay mixer: Number of initial linear mixing iterations not set.
  Defaulting to    0 iterations.
  Work space size for distributed Hartree potential not set.
  Defaulting to   0.200000E+03 MB.
  Mixing parameter for charge density mixing has not been set.
  Using default: charge_mix_param =     0.0500.
  The mixing parameter will be adjusted in iteration number     2 of the first full s.c.f. cycle only.
  Algorithm-dependent basis array size parameters:
  | n_max_pulay                         :        8
  Maximum number of self-consistency iterations not provided.
  Presetting  1000 iterations.
  Presetting      1001 iterations before the initial mixing cycle
  is restarted anyway using the sc_init_iter criterion / keyword.
  Presetting a factor      1.000 between actual scf density residual
  and density convergence criterion sc_accuracy_rho below which sc_init_iter
  takes no effect.
  Geometry relaxation not requested: no relaxation will be performed.
  Handling of forces: Unphysical translation and rotation will be removed from forces.
  No accuracy limit for integral partition fn. given. Defaulting to  0.1000E-14.
  No threshold value for u(r) in integrations given. Defaulting to  0.1000E-05.
  No occupation type (smearing scheme) given. Defaulting to Gaussian broadening, width =  0.1000E-01 eV.
  The width will be adjusted in iteration number     2 of the first full s.c.f. cycle only.
  S.C.F. convergence parameters will be adjusted in iteration number     2 of the first full s.c.f. cycle only.
  No accuracy for occupation numbers given. Defaulting to  0.1000E-12.
  No threshold value for occupation numbers given. Defaulting to  0.0000E+00.
  No accuracy for fermi level given. Defaulting to  0.1000E-19.
  Maximum # of iterations to find E_F not set. Defaulting to  200.
  Preferred method for the eigenvalue solver ('KS_method') not specified in 'control.in'.
  Calling BLACS routine to test compilation state
  Since ScaLAPACK support is enabled, defaulting to 'elsi'.
  Will not use alltoall communication since running on < 1024 CPUs.
  Threshold for basis singularities not set.
  Default threshold for basis singularities:  0.1000E-04
  partition_type (choice of integration weights) for integrals was not specified.
  | Using a version of the partition function of Stratmann and coworkers ('stratmann_smoother').
  | At each grid point, the set of atoms used to build the partition table is smoothly restricted to
  | only those atoms whose free-atom density would be non-zero at that grid point.
  Partitioning for Hartree potential was not defined. Using partition_type for integrals.
  | Adjusted default value of keyword multip_moments_threshold to:       0.10000000E-11
  | This value may affect high angular momentum components of the Hartree potential in periodic systems.
  Spin handling was not defined in control.in. Defaulting to unpolarized case.
  Angular momentum expansion for Kerker preconditioner not set explicitly.
  | Using default value of   0
  No explicit requirement for turning off preconditioner.
  | By default, it will be turned off when the charge convergence reaches
  | sc_accuracy_rho  =   0.100000E-05
  | sc_accuracy_eev  =   0.100000E-02
  | sc_accuracy_etot =   0.100000E-05
  No special mixing parameter while Kerker preconditioner is on.
  Using default: charge_mix_param =     0.0500.
  No q(lm)/r^(l+1) cutoff set for long-range Hartree potential.
  | Using default value of  0.100000E-09 .
  | Verify using the multipole_threshold keyword.
  Defaulting to new monopole extrapolation.
  Density update method: automatic selection selected.
  Using density matrix based charge density update.
  Using density matrix based charge density update.
  Using packed matrix style: index .
  Defaulting to use time-reversal symmetry for k-point grid.
------------------------------------------------------------


------------------------------------------------------------
          Reading geometry description geometry.in.
------------------------------------------------------------
 * Warning! You did not set the 'relativistic' flag in input file 'control.in'.
 * Since you are not attempting to treat any elements beyond Ca(Z=20), FHI-aims
 * will default to 'relativistic none'.
 * You must ensure that this is really what you want!!
 * For example, DO NOT compute total-energy differences between results from
 * different settings of the 'relativistic' flag.
  Input structure read successfully.
  The structure contains      104 atoms,  and a total of       1344.000 electrons.

  Input geometry:
  | Unit cell:
  |       19.20644144        0.00000000        0.00000000
  |        0.00000000       15.94414743        0.00000000
  |        0.00000000        0.00000000        7.37119880
  | Atomic structure:
  |       Atom                x [A]            y [A]            z [A]
  |    1: Species Li            2.65090584        2.35972268        4.56831864
  |    2: Species Li            1.71473896        8.00082071        4.14646892
  |    3: Species Li            8.79252975        3.60619099        2.77795606
  |    4: Species Li            6.70806697        1.36881219        6.21234765
  |    5: Species Li            7.89470800        0.90945242        3.01062539
  |    6: Species Li            6.55908416        5.82823977        3.39354429
  |    7: Species Li           12.28877602        2.35354948        2.54058099
  |    8: Species Li           11.71719913        8.30180075        4.29302458
  |    9: Species Li           18.85070270        4.51444069        4.17177241
  |   10: Species Li           13.66091704        2.85190649        6.17984045
  |   11: Species Li           17.47675177        1.01761686        4.49569896
  |   12: Species Li           15.58167383        7.09492359        5.23876221
  |   13: Species Li            3.38031536       10.83462193        4.50996711
  |   14: Species Li            1.33042290       15.88225525        4.21214982
  |   15: Species Li            8.93973412       12.10913469        3.96326028
  |   16: Species Li            6.44569870        8.58262967        4.63614053
  |   17: Species Li            8.11982241        8.92864847        2.17425663
  |   18: Species Li            6.40664008       14.12043871        4.50021424
  |   19: Species Li           12.20380031       10.80571718        2.55811773
  |   20: Species Li           11.11729891       15.84911766        3.38208123
  |   21: Species Li            0.16177973       12.50731034        4.32756996
  |   22: Species Li           15.86152309       10.13168387        6.15380675
  |   23: Species Li           17.91839005        8.61032843        3.17194084
  |   24: Species Li           16.14172265       14.64643485        5.11361952
  |   25: Species P             8.90398395        6.99770992        4.38413287
  |   26: Species P             4.57593786        0.62955442        3.30535729
  |   27: Species P            18.68172094        7.76169864        6.20124640
  |   28: Species P            14.51906999        1.12201264        2.85202825
  |   29: Species P             9.03019281       15.25378339        5.15204004
  |   30: Species P             4.32333526        8.29158929        2.67813531
  |   31: Species P            18.69058049       15.58895305        6.32469537
  |   32: Species P            14.40870048        8.69691059        3.21845586
  |   33: Species S             1.17146938        0.71592281        6.55932687
  |   34: Species S             2.84010151        0.40446242        2.44566633
  |   35: Species S             5.33737469        2.53929731        2.24230918
  |   36: Species S             8.77156401        6.00967399        2.56745606
  |   37: Species S             7.60855322       15.04059624        6.46532497
  |   38: Species S             6.05462764        7.49403485        2.18862912
  |   39: Species S            10.56984854        6.31204723        5.35254619
  |   40: Species S             4.45051548        1.20375944        5.24756650
  |   41: Species S             0.36347929        2.57394476        2.21093004
  |   42: Species S             1.23661826        4.45639931        2.31667596
  |   43: Species S             6.99395100        2.14092114        1.28461531
  |   44: Species S             7.47925857        2.95486095        4.63861587
  |   45: Species S            10.86307929        4.52989616        4.30607175
  |   46: Species S             5.88001693        3.75719824        4.02386132
  |   47: Species S             3.02132627        4.39150261        3.27817906
  |   48: Species S             2.90218707        5.61698658        5.02034828
  |   49: Species S             0.37884342        2.14931411        4.12179811
  |   50: Species S             2.19484974        4.53821596        6.45688403
  |   51: Species S             9.62472108        1.17346100        4.96948384
  |   52: Species S            13.64483384        1.01226178        1.10857578
  |   53: Species S            15.46993172        3.08406110        2.91308161
  |   54: Species S            18.57555740        6.81088915        4.32531298
  |   55: Species S            17.03551988        0.52439670        6.78587419
  |   56: Species S            15.69366207        7.34641963        2.83592909
  |   57: Species S            18.78610775        6.25635938        0.17559184
  |   58: Species S            13.10993612        1.24089750        4.30928126
  |   59: Species S             9.98535037        1.64475646        0.35965016
  |   60: Species S             9.81978810        3.54945609        0.10859238
  |   61: Species S            16.72872791        3.25825724        4.41329963
  |   62: Species S            15.81156431        3.91093868        6.28240148
  |   63: Species S             0.15281568        4.59337114        6.50986925
  |   64: Species S            14.44883349        5.11823542        5.89427905
  |   65: Species S            11.78821980        4.24565217        7.36467698
  |   66: Species S            12.20319701        5.61143419        1.55345971
  |   67: Species S            10.08706181        1.62990482        2.36486230
  |   68: Species S            12.58508511        4.78660247        3.23959006
  |   69: Species S             1.05027642        8.97402556        6.41854832
  |   70: Species S             2.70611950        7.48127884        1.83779926
  |   71: Species S             4.55761373       10.23100920        2.00358748
  |   72: Species S             8.68482361       14.20147465        3.38193558
  |   73: Species S             7.33527680        6.76712338        5.54506174
  |   74: Species S             5.93309469       15.34656274        2.70711556
  |   75: Species S            10.90667072       14.74958437        5.81084019
  |   76: Species S             4.12958217        8.65389036        4.66892540
  |   77: Species S             1.24608728       10.77977751        1.97292690
  |   78: Species S             1.59480228       12.77872039        2.35971105
  |   79: Species S             6.46862318       10.86317695        2.25257499
  |   80: Species S             6.80726100       11.00358096        4.31690367
  |   81: Species S            10.79453709       12.72872748        5.42050032
  |   82: Species S             5.46892114       12.12572867        5.26649315
  |   83: Species S             3.33902696       12.97586951        3.45870674
  |   84: Species S             2.94231265       14.15897996        5.16551689
  |   85: Species S             0.87093084       10.18674592        3.81965095
  |   86: Species S             2.48586760       13.07368664        6.68930864
  |   87: Species S             9.43821139        8.93512413        4.36695618
  |   88: Species S            12.72571951        8.58806850        2.19594948
  |   89: Species S            15.13820845       10.50895952        2.49781545
  |   90: Species S            18.50648287       14.63137093        4.44412496
  |   91: Species S            16.97819436        8.40487330        6.96132158
  |   92: Species S            15.85673213       15.76954145        3.03122006
  |   93: Species S            18.68943341       14.09966036        0.28700209
  |   94: Species S            13.91636846        8.91193475        5.16545450
  |   95: Species S            10.14774844       11.93206826        0.80965631
  |   96: Species S            11.24481399       13.59980252        1.42795444
  |   97: Species S            17.06813847       10.73610249        2.70927237
  |   98: Species S            17.31007332       11.35776038        4.84551204
  |   99: Species S             0.47265009       12.63179606        6.68045734
  |  100: Species S            15.76657165       12.32772360        5.55038720
  |  101: Species S            13.12513325       12.97555304        1.69080006
  |  102: Species S            13.45807114       13.62816748        3.63816239
  |  103: Species S             9.89872159       10.73121962        2.29293857
  |  104: Species S            12.71798185       12.27917711        4.80763282

  Lattice parameters for 3D lattice (in Angstroms) :    19.206441   15.944147    7.371199
  Angle(s) between unit vectors (in degrees)      :    90.000000   90.000000   90.000000

  |

  | The smallest distance between any two atoms is         1.86151544 AA.
  |
  | The first atom of this pair is atom number                     62 .
  | The second atom of this pair is atom number                    64 .
  | Wigner-Seitz cell of the first atom image           0     0     0 .
  | (The Wigner-Seitz cell of the second atom is 0 0 0  by definition.)

  Symmetry information by spglib:
  | Precision set to  0.1E-04
  | Number of Operations  : 1
  | Space group           : 1
  | International         : P1
  | Schoenflies           : C1^1

  Quantities derived from the lattice vectors:
  | Reciprocal lattice vector 1:  0.327139  0.000000  0.000000
  | Reciprocal lattice vector 2:  0.000000  0.394075  0.000000
  | Reciprocal lattice vector 3:  0.000000  0.000000  0.852397
  | Unit cell volume                               :   0.225728E+04  A^3

  Range separation radius for Ewald summation (hartree_convergence_parameter):      4.00539840 bohr.

  Fractional coordinates:
                         L1                L2                L3
       atom_frac         0.13802171        0.14799930        0.61975247  Li
       atom_frac         0.08927937        0.50180298        0.56252301  Li
       atom_frac         0.45779067        0.22617647        0.37686625  Li
       atom_frac         0.34926131        0.08585045        0.84278661  Li
       atom_frac         0.41104481        0.05703989        0.40843090  Li
       atom_frac         0.34150440        0.36554101        0.46037889  Li
       atom_frac         0.63982576        0.14761212        0.34466320  Li
       atom_frac         0.61006612        0.52068013        0.58240521  Li
       atom_frac         0.98147815        0.28314093        0.56595576  Li
       atom_frac         0.71126747        0.17886855        0.83837658  Li
       atom_frac         0.90994221        0.06382385        0.60990065  Li
       atom_frac         0.81127334        0.44498608        0.71070695  Li
       atom_frac         0.17599905        0.67953599        0.61183631  Li
       atom_frac         0.06926962        0.99611819        0.57143348  Li
       atom_frac         0.46545500        0.75947207        0.53766835  Li
       atom_frac         0.33560088        0.53829342        0.62895340  Li
       atom_frac         0.42276558        0.55999535        0.29496649  Li
       atom_frac         0.33356726        0.88561893        0.61051321  Li
       atom_frac         0.63540143        0.67772311        0.34704229  Li
       atom_frac         0.57883179        0.99403983        0.45882377  Li
       atom_frac         0.00842320        0.78444523        0.58709174  Li
       atom_frac         0.82584393        0.63544846        0.83484477  Li
       atom_frac         0.93293649        0.54003066        0.43031546  Li
       atom_frac         0.84043276        0.91860884        0.69372970  Li
       atom_frac         0.46359363        0.43888894        0.59476525  P
       atom_frac         0.23825017        0.03948499        0.44841516  P
       atom_frac         0.97267997        0.48680550        0.84128058  P
       atom_frac         0.75594795        0.07037144        0.38691512  P
       atom_frac         0.47016481        0.95670110        0.69894195  P
       atom_frac         0.22509819        0.52003968        0.36332425  P
       atom_frac         0.97314125        0.97772259        0.85802805  P
       atom_frac         0.75020146        0.54546100        0.43662584  P
       atom_frac         0.06099357        0.04490192        0.88985890  S
       atom_frac         0.14787234        0.02536745        0.33178678  S
       atom_frac         0.27789503        0.15926203        0.30419871  S
       atom_frac         0.45669907        0.37692037        0.34830916  S
       atom_frac         0.39614591        0.94333023        0.87710631  S
       atom_frac         0.31523943        0.47001791        0.29691631  S
       atom_frac         0.55032831        0.39588490        0.72614324  S
       atom_frac         0.23171994        0.07549851        0.71190137  S
       atom_frac         0.01892486        0.16143508        0.29994172  S
       atom_frac         0.06438560        0.27950063        0.31428754  S
       atom_frac         0.36414611        0.13427630        0.17427495  S
       atom_frac         0.38941407        0.18532574        0.62928921  S
       atom_frac         0.56559563        0.28411028        0.58417523  S
       atom_frac         0.30614817        0.23564748        0.54588968  S
       atom_frac         0.15730797        0.27543038        0.44472808  S
       atom_frac         0.15110488        0.35229144        0.68107623  S
       atom_frac         0.01972481        0.13480270        0.55917609  S
       atom_frac         0.11427675        0.28463209        0.87596118  S
       atom_frac         0.50111943        0.07359823        0.67417580  S
       atom_frac         0.71043009        0.06348798        0.15039288  S
       atom_frac         0.80545539        0.19342904        0.39519781  S
       atom_frac         0.96715248        0.42717174        0.58678555  S
       atom_frac         0.88696909        0.03288960        0.92059302  S
       atom_frac         0.81710410        0.46075964        0.38473105  S
       atom_frac         0.97811496        0.39239222        0.02382134  S
       atom_frac         0.68258017        0.07782777        0.58461064  S
       atom_frac         0.51989591        0.10315738        0.04879127  S
       atom_frac         0.51127577        0.22261812        0.01473198  S
       atom_frac         0.87099570        0.20435444        0.59872210  S
       atom_frac         0.82324278        0.24528992        0.85229033  S
       atom_frac         0.00795648        0.28809136        0.88314933  S
       atom_frac         0.75229102        0.32101029        0.79963642  S
       atom_frac         0.61376387        0.26628280        0.99911523  S
       atom_frac         0.63537002        0.35194319        0.21074723  S
       atom_frac         0.52519161        0.10222590        0.32082465  S
       atom_frac         0.65525335        0.30021062        0.43949297  S
       atom_frac         0.05468355        0.56284136        0.87076044  S
       atom_frac         0.14089645        0.46921787        0.24932162  S
       atom_frac         0.23729610        0.64167804        0.27181298  S
       atom_frac         0.45218286        0.89070141        0.45880401  S
       atom_frac         0.38191754        0.42442679        0.75226051  S
       atom_frac         0.30891171        0.96252012        0.36725581  S
       atom_frac         0.56786525        0.92507827        0.78831685  S
       atom_frac         0.21501027        0.54276282        0.63340110  S
       atom_frac         0.06487861        0.67609620        0.26765347  S
       atom_frac         0.08303476        0.80146778        0.32012582  S
       atom_frac         0.33679447        0.68132693        0.30559140  S
       atom_frac         0.35442594        0.69013292        0.58564472  S
       atom_frac         0.56202692        0.79833227        0.73536211  S
       atom_frac         0.28474411        0.76051283        0.71446902  S
       atom_frac         0.17384933        0.81383276        0.46921903  S
       atom_frac         0.15319405        0.88803619        0.70077026  S
       atom_frac         0.04534577        0.63890189        0.51818585  S
       atom_frac         0.12942885        0.81996775        0.90749264  S
       atom_frac         0.49140865        0.56040150        0.59243500  S
       atom_frac         0.66257560        0.53863454        0.29790941  S
       atom_frac         0.78818393        0.65911078        0.33886150  S
       atom_frac         0.96355605        0.91766405        0.60290396  S
       atom_frac         0.88398439        0.52714473        0.94439477  S
       atom_frac         0.82559448        0.98904890        0.41122484  S
       atom_frac         0.97308153        0.88431573        0.03893561  S
       atom_frac         0.72456777        0.55894709        0.70076180  S
       atom_frac         0.52835131        0.74836665        0.10984052  S
       atom_frac         0.58547097        0.85296518        0.19372079  S
       atom_frac         0.88866740        0.67335695        0.36754841  S
       atom_frac         0.90126395        0.71234667        0.65735739  S
       atom_frac         0.02460894        0.79225284        0.90629184  S
       atom_frac         0.82090020        0.77318174        0.75298297  S
       atom_frac         0.68337142        0.81381291        0.22937925  S
       atom_frac         0.70070612        0.85474420        0.49356455  S
       atom_frac         0.51538551        0.67305070        0.31106725  S
       atom_frac         0.66217273        0.77013695        0.65221858  S

  Number of empty states per atom not set in control.in - providing a guess from actual geometry.
  | Total number of empty states used during s.c.f. cycle:      276
  If you use a very high smearing, use empty_states (per atom!) in control.in to increase this value.

  Structure-dependent array size parameters: 
  | Maximum number of distinct radial functions  :       43
  | Maximum number of basis functions            :     3840
  | Number of Kohn-Sham states (occupied + empty):      948
------------------------------------------------------------

------------------------------------------------------------
          Preparing all fixed parts of the calculation.
------------------------------------------------------------
  Determining machine precision:
    2.225073858507201E-308
  Setting up grids for atomic and cluster calculations.

  Creating wave function, potential, and density for free atoms.

  Species: Li

  List of occupied orbitals and eigenvalues:
    n    l              occ      energy [Ha]    energy [eV]
    1    0           2.0000        -1.901473       -51.7417
    2    0           1.0000        -0.103132        -2.8064


  Species: P

  List of occupied orbitals and eigenvalues:
    n    l              occ      energy [Ha]    energy [eV]
    1    0           2.0000       -76.356288     -2077.7603
    2    0           2.0000        -6.358286      -173.0178
    3    0           2.0000        -0.509419       -13.8620
    2    1           6.0000        -4.573976      -124.4642
    3    1           3.0000        -0.201560        -5.4847


  Species: S

  List of occupied orbitals and eigenvalues:
    n    l              occ      energy [Ha]    energy [eV]
    1    0           2.0000       -88.108280     -2397.5483
    2    0           2.0000        -7.732485      -210.4116
    3    0           2.0000        -0.629532       -17.1304
    2    1           6.0000        -5.750324      -156.4743
    3    1           4.0000        -0.257562        -7.0086


  Species: Cl

  List of occupied orbitals and eigenvalues:
    n    l              occ      energy [Ha]    energy [eV]
    1    0           2.0000      -100.710795     -2740.4802
    2    0           2.0000        -9.222997      -250.9705
    3    0           2.0000        -0.754245       -20.5241
    2    1           6.0000        -7.039872      -191.5647
    3    1           5.0000        -0.316221        -8.6048

  Creating fixed part of basis set: Ionic, confined, hydrogenic.
 
  Li                   hydrogenic:
 
  List of hydrogenic basis orbitals: 
    n    l      effective z      eigenvalue [eV]  inner max. [A]     outer max. [A]     outer radius [A]   
    2    1         1.600000        -8.7048           1.319365           1.319365           6.386418
    2    0         2.000000       -13.6052           0.203259           1.385485           6.232164
    3    2         2.600000       -10.2084           1.835332           1.835332           6.386418
    3    1         4.600000       -31.9883           0.343834           1.385485           5.381805
    2    1         1.800000       -11.0199           1.181903           1.181903           6.386418
    3    0         6.200000       -58.1113           0.062858           1.111823           4.371906
    4    2         4.700000       -18.7772           0.761113           2.401695           6.386418
    4    3         4.100000       -14.2833           2.073992           2.073992           6.386418
 
 
  P                    ion:

  List of free ionic orbitals and eigenvalues:
    n    l      energy [Ha]    energy [eV]
    1    0       -77.297133     -2103.3620
    2    0        -7.273914      -197.9333
    3    0        -1.267536       -34.4914
    2    1        -5.491316      -149.4263
    3    1        -0.913470       -24.8568


  List of ionic basis orbitals and eigenvalues:
    n    l      energy [Ha]    energy [eV]    outer radius [A]
    3    2        -0.458060       -12.4644       5.404780
    3    1        -0.913461       -24.8565       4.724723
    3    0        -1.267529       -34.4912       4.232463

 
  P                    hydrogenic:
 
  List of hydrogenic basis orbitals: 
    n    l      effective z      eigenvalue [eV]  inner max. [A]     outer max. [A]     outer radius [A]   
    4    3         6.200000       -32.6870           1.357793           1.357793           5.339109
    5    4         8.600000       -40.2502           1.534356           1.534356           5.404780
    4    2         6.200000       -32.6848           0.577014           1.820771           5.404780
 
 
  S                    ion:

  List of free ionic orbitals and eigenvalues:
    n    l      energy [Ha]    energy [eV]
    1    0       -89.127201     -2425.2745
    2    0        -8.724378      -237.4024
    3    0        -1.464668       -39.8556
    2    1        -6.744348      -183.5230
    3    1        -1.048520       -28.5317


  List of ionic basis orbitals and eigenvalues:
    n    l      energy [Ha]    energy [eV]    outer radius [A]
    3    2        -0.496514       -13.5108       5.386362
    3    0        -1.464662       -39.8555       3.967934

 
  S                    hydrogenic:
 
  List of hydrogenic basis orbitals: 
    n    l      effective z      eigenvalue [eV]  inner max. [A]     outer max. [A]     outer radius [A]   
    2    1         1.800000       -11.0118           1.168531           1.168531           5.452614
    4    3         7.000000       -41.6672           1.212182           1.212182           5.066981
    4    2         6.200000       -32.6848           0.582121           1.814567           5.386362
    5    4        10.800000       -63.4785           1.227092           1.227092           4.766538
 
 
  Cl                   ion:

  List of free ionic orbitals and eigenvalues:
    n    l      energy [Ha]    energy [eV]
    1    0      -101.807232     -2770.3157
    2    0       -10.290876      -280.0290
    3    0        -1.664625       -45.2967
    2    1        -8.110237      -220.6908
    3    1        -1.183915       -32.2160


  List of ionic basis orbitals and eigenvalues:
    n    l      energy [Ha]    energy [eV]    outer radius [A]
    3    2        -0.529392       -14.4055       5.389057
    3    0        -1.664620       -45.2966       3.780461

 
  Cl                   hydrogenic:
 
  List of hydrogenic basis orbitals: 
    n    l      effective z      eigenvalue [eV]  inner max. [A]     outer max. [A]     outer radius [A]   
    2    1         1.900000       -12.2741           1.113321           1.113321           5.389057
    4    3         7.400000       -46.5653           1.140877           1.140877           4.886961
    5    4        10.400000       -58.8635           1.273568           1.273568           4.886961
    3    2         3.300000       -16.4532           1.439178           1.439178           5.455343
 

  Adding cutoff potential to free-atom effective potential.
  Creating atomic-like basis functions for current effective potential.

  Species Li                  :

  List of atomic basis orbitals and eigenvalues:
    n    l      energy [Ha]    energy [eV]    outer radius [A]
    1    0        -1.901473       -51.7417       4.318785
    2    0        -0.103132        -2.8064       6.464971


  Species P                   :

  List of atomic basis orbitals and eigenvalues:
    n    l      energy [Ha]    energy [eV]    outer radius [A]
    1    0       -76.356288     -2077.7603       0.736837
    2    0        -6.358286      -173.0178       2.532824
    3    0        -0.509419       -13.8620       5.274236
    2    1        -4.573976      -124.4642       2.862183
    3    1        -0.201560        -5.4847       5.404780


  Species S                   :

  List of atomic basis orbitals and eigenvalues:
    n    l      energy [Ha]    energy [eV]    outer radius [A]
    1    0       -88.108280     -2397.5483       0.682391
    2    0        -7.732485      -210.4116       2.317169
    3    0        -0.629532       -17.1304       5.256262
    2    1        -5.750324      -156.4743       2.555240
    3    1        -0.257562        -7.0086       5.386362


  Species Cl                  :

  List of atomic basis orbitals and eigenvalues:
    n    l      energy [Ha]    energy [eV]    outer radius [A]
    1    0      -100.710795     -2740.4802       0.642251
    2    0        -9.222997      -250.9705       2.128190
    3    0        -0.754245       -20.5241       5.194994
    2    1        -7.039872      -191.5647       2.346844
    3    1        -0.316221        -8.6048       5.323577

  Assembling full basis from fixed parts.
  | Species Li :   atomic orbital   1 s accepted.
  | Species Li :    hydro orbital   3 s accepted.
  | Species Li :    hydro orbital   2 s accepted.
  | Species Li :   atomic orbital   2 s accepted.
  | Species Li :    hydro orbital   3 p accepted.
  | Species Li :    hydro orbital   2 p accepted.
  | Species Li :    hydro orbital   2 p accepted.
  | Species Li :    hydro orbital   3 d accepted.
  | Species Li :    hydro orbital   4 d accepted.
  | Species Li :    hydro orbital   4 f accepted.
  | Species P :   atomic orbital   1 s accepted.
  | Species P :   atomic orbital   2 s accepted.
  | Species P :    ionic orbital   3 s accepted.
  | Species P :   atomic orbital   3 s accepted.
  | Species P :   atomic orbital   2 p accepted.
  | Species P :    ionic orbital   3 p accepted.
  | Species P :   atomic orbital   3 p accepted.
  | Species P :    ionic orbital   3 d accepted.
  | Species P :    hydro orbital   4 d accepted.
  | Species P :    hydro orbital   4 f accepted.
  | Species P :    hydro orbital   5 g accepted.
  | Species S :   atomic orbital   1 s accepted.
  | Species S :   atomic orbital   2 s accepted.
  | Species S :    ionic orbital   3 s accepted.
  | Species S :   atomic orbital   3 s accepted.
  | Species S :   atomic orbital   2 p accepted.
  | Species S :   atomic orbital   3 p accepted.
  | Species S :    hydro orbital   2 p accepted.
  | Species S :    ionic orbital   3 d accepted.
  | Species S :    hydro orbital   4 d accepted.
  | Species S :    hydro orbital   4 f accepted.
  | Species S :    hydro orbital   5 g accepted.
  | Species Cl :   atomic orbital   1 s accepted.
  | Species Cl :   atomic orbital   2 s accepted.
  | Species Cl :    ionic orbital   3 s accepted.
  | Species Cl :   atomic orbital   3 s accepted.
  | Species Cl :   atomic orbital   2 p accepted.
  | Species Cl :   atomic orbital   3 p accepted.
  | Species Cl :    hydro orbital   2 p accepted.
  | Species Cl :    ionic orbital   3 d accepted.
  | Species Cl :    hydro orbital   3 d accepted.
  | Species Cl :    hydro orbital   4 f accepted.
  | Species Cl :    hydro orbital   5 g accepted.
 
  Basis size parameters after reduction:
  | Total number of radial functions:       43
  | Total number of basis functions :     3840
 
  Per-task memory consumption for arrays in subroutine allocate_ext:
  |          11.342760MB.
  Testing on-site integration grid accuracy.
  |  Species  Function  <phi|h_atom|phi> (log., in eV)  <phi|h_atom|phi> (rad., in eV)
           1        1                -51.7417001117                -51.7417000312
           1        2                 33.5927188637                 33.5926505054
           1        3                 69.1469416012                 69.1473382425
           1        4                 48.8336153902                 48.8810182289 ***
           1        5                 17.1749490570                 17.1749098864
           1        6                 32.1201183828                 32.1217831653
           1        7                  6.0166019876                  6.0249480535
           1        8                  4.9175332206                  4.9194842525
           1        9                 28.8010599263                 28.8011051086
           1       10                  9.9331480983                  9.9353515081
           2       11              -2077.7602992527              -2077.7602630746
           2       12               -173.0177635265               -173.0177629291
           2       13                -13.5620523038                -13.5620521963
           2       14                  6.3015351439                  6.3015396353
           2       15               -124.4642131574               -124.4642129967
           2       16                 -4.8468074573                 -4.8468065719
           2       17                  5.8113348591                  5.8108493787
           2       18                  5.1218113540                  5.1217878152
           2       19                 22.1386653152                 22.1386624883
           2       20                 19.3047268689                 19.3047231214
           2       21                 30.3235883931                 30.3235836780
           3       22              -2397.5482725833              -2397.5482291499
           3       23               -210.4116306505               -210.4116300246
           3       24                -16.8591546483                -16.8591544436
           3       25                  7.5848976656                  7.5849001027
           3       26               -156.4742745766               -156.4742744285
           3       27                 -7.0089268331                 -7.0089287934
           3       28                  6.8790437028                  6.8789536772
           3       29                  6.0023049431                  6.0023019693
           3       30                 19.5634804122                 19.5634829634
           3       31                 24.6809503130                 24.6809503093
           3       32                 47.5107032033                 47.5107040524
           4       33              -2740.4801671239              -2740.4801157382
           4       34               -250.9705040601               -250.9705032686
           4       35                -20.2716828479                -20.2716826054
           4       36                  9.0161300765                  9.0161279813
           4       37               -191.5646602865               -191.5646600866
           4       38                 -8.6049187754                 -8.6049181478
           4       39                  7.6458046208                  7.6458222053
           4       40                  6.9765726558                  6.9765744583
           4       41                 16.6546700656                 16.6546956458
           4       42                 28.0343243807                 28.0343233726
           4       43                 45.0370063060                 45.0370052039
 * Note: Onsite integrals marked "***" above are less accurate than
 * onsite_accuracy_threshold =    0.03000 eV. Usually, this is harmless.
 * When in doubt, tighten the "radial" and/or "radial_multiplier" flags to check.

  Preparing densities etc. for the partition functions (integrals / Hartree potential).

  Preparations completed.
  max(cpu_time)          :      0.466 s.
  Wall clock time (cpu1) :      0.472 s.
------------------------------------------------------------

------------------------------------------------------------
          Begin self-consistency loop: Initialization.

          Date     :  20220704, Time     :  070048.938
------------------------------------------------------------

  Initializing index lists of integration centers etc. from given atomic structure:
  Mapping all atomic coordinates to central unit cell.

  Initializing the k-points
          Using symmetry for reducing the k-points
  | k-points reduced from:        2 to        2
  | Number of k-points                             :         2
  The eigenvectors in the calculations are REAL.
  | Number of basis functions in the Hamiltonian integrals :     20395
  | Number of basis functions in a single unit cell        :      3840
  | Number of centers in hartree potential         :      2902
  | Number of centers in hartree multipole         :      1979
  | Number of centers in electron density summation:      1624
  | Number of centers in basis integrals           :      1715
  | Number of centers in integrals                 :       703
  | Number of centers in hamiltonian               :      1963
  | Consuming          1 KiB for k_phase.
  | Number of super-cells (origin) [n_cells]                     :         175
  | Number of super-cells (after PM_index) [n_cells]             :          46
  | Number of super-cells in hamiltonian [n_cells_in_hamiltonian]:          46
  | Size of matrix packed + index [n_hamiltonian_matrix_size] :    16608944
  Using simple linear distribution as default method for k-point parallelism.
  * Using 20 tasks for Scalapack Eigenvalue solver.
  Detailed listing of tasks and assigned k-points:
   Task     0 k-point     1 on node108
   Task     1 k-point     1 on node108
   Task     2 k-point     1 on node108
   Task     3 k-point     1 on node108
   Task     4 k-point     1 on node108
   Task     5 k-point     1 on node108
   Task     6 k-point     1 on node108
   Task     7 k-point     1 on node108
   Task     8 k-point     1 on node108
   Task     9 k-point     1 on node108
   Task    10 k-point     2 on node108
   Task    11 k-point     2 on node108
   Task    12 k-point     2 on node108
   Task    13 k-point     2 on node108
   Task    14 k-point     2 on node108
   Task    15 k-point     2 on node108
   Task    16 k-point     2 on node108
   Task    17 k-point     2 on node108
   Task    18 k-point     2 on node108
   Task    19 k-point     2 on node108
  K-point:     1 Tasks:    10 split into      5 X      2 BLACS grid
  Calculating block size based on n_basis =         3840 max_nprow =            5 max_npcol =            2
  ScaLAPACK block size set to:           16
  Allocating       11.796 MB for ovlp
  Allocating       11.796 MB for ham
  Allocating       11.796 MB for eigenvec
  Required Scalapack workspace - INTEGER:            1 REAL:             1
  Partitioning the integration grid into batches with parallel hashing+maxmin method.
  | Number of batches:    27752
  | Maximal batch size:     135
  | Minimal batch size:      53
  | Average batch size:      84.033
  | Standard deviation of batch sizes:      23.107

  Integration load balanced across    20 MPI tasks.
  Work distribution over tasks is as follows:
  Task     0 has     116551 integration points.
  Task     1 has     116545 integration points.
  Task     2 has     116572 integration points.
  Task     3 has     116609 integration points.
  Task     4 has     116636 integration points.
  Task     5 has     116618 integration points.
  Task     6 has     116568 integration points.
  Task     7 has     116621 integration points.
  Task     8 has     116632 integration points.
  Task     9 has     116651 integration points.
  Task    10 has     116623 integration points.
  Task    11 has     116550 integration points.
  Task    12 has     116610 integration points.
  Task    13 has     116591 integration points.
  Task    14 has     116612 integration points.
  Task    15 has     116632 integration points.
  Task    16 has     116611 integration points.
  Task    17 has     116622 integration points.
  Task    18 has     116591 integration points.
  Task    19 has     116635 integration points.
  Initializing partition tables, free-atom densities, potentials, etc. across the integration grid (initialize_grid_storage).
  | initialize_grid_storage: Actual outermost partition radius vs. multipole_radius_free
  | (-- VB: in principle, multipole_radius_free should be larger, hence this output)
  | Species        1: Confinement radius =              7.000000000000000 AA, multipole_radius_free =              7.042572113910259 AA.
  | Species        1: outer_partition_radius set to              7.042572113910259 AA .
  | Species        2: Confinement radius =              6.000000000000000 AA, multipole_radius_free =              6.033387558927091 AA.
  | Species        2: outer_partition_radius set to              6.033387558927091 AA .
  | Species        3: Confinement radius =              6.000000000000000 AA, multipole_radius_free =              6.012827091137924 AA.
  | Species        3: outer_partition_radius set to              6.012827091137924 AA .
  | Species        4: Confinement radius =              6.000000000000000 AA, multipole_radius_free =              6.015836048499353 AA.
  | Species        4: outer_partition_radius set to              6.015836048499353 AA .
  | Original list of interatomic distances with        1715 x       1715 entries is created.
  | Net number of integration points:  2332080
  | of which are non-zero points    :  1875947
  | Numerical average free-atom electrostatic potential    :    -10.46185394 eV
  Renormalizing the initial density to the exact electron count on the 3D integration grid.
  | Initial density: Formal number of electrons (from input files) :    1344.0000000000
  | Integrated number of electrons on 3D grid     :    1344.0000814099
[...]
  | Total energy evaluation                    :        0.003 s           0.005 s

  Partial memory accounting:
  | Current value for overall tracked memory usage on task 0  :         241.924 MB
  | Peak value for overall tracked memory usage on task 0     :         507.666 MB after allocating temp_ham_ovlp
  | Largest tracked array allocation on task 0 so far         :         132.872 MB  when allocating overlap_matrix
  Note:  These values currently only include a subset of arrays which are explicitly tracked.
  The "true" memory usage will be greater.
------------------------------------------------------------
  |------------------------------------------
  | Final ELSI Output
  |------------------------------------------
  | Number of basis functions :         3840
  | Number of electrons       :       1344.0
  | Number of spins           :            1
  | Number of k-points        :            2
  | Number of states          :          948
  | Solver                    :         ELPA
  | Parallel mode             :   MULTI_PROC
  | Matrix format             :  BLACS_DENSE
  | Matrix sparsity           :        0.152
  |------------------------------------------
  | ELSI Project (c)  elsi-interchange.org
  |------------------------------------------
  Removing unitary transformations (pure translations, rotations) from forces on atoms.
  Atomic forces before filtering:
  | Net force on center of mass :   0.291189E-03 -0.150964E-02  0.367261E-02 eV/A
  Atomic forces after filtering:
  | Net force on center of mass :  -0.554732E-15  0.142725E-14 -0.196247E-14 eV/A

  Energy and forces in a compact form:
  | Total energy uncorrected      :         -0.859133212285311E+06 eV
  | Total energy corrected        :         -0.859133212285311E+06 eV  <-- do not rely on this value for anything but (periodic) metals
  | Electronic free energy        :         -0.859133212285311E+06 eV
  Total atomic forces (unitary forces cleaned) [eV/Ang]:
  |   1         -0.246334190557191E+00          0.108844076111908E-01          0.876797445541105E-01
  |   2          0.798794589447359E-01         -0.173581826130461E+00          0.501630428605283E-01
  |   3          0.324080954703843E-01          0.129265898312080E+00         -0.855087323539695E-01
  |   4         -0.111222635563678E+00         -0.786312051671256E-01          0.178246080140733E+00
  |   5          0.849960723440641E-01         -0.352897328124028E+00          0.167761557841624E+00
  |   6          0.221825778558024E+00         -0.421189341549659E+00          0.480151172303603E+00
  |   7         -0.268310818976563E+00          0.347618378034162E+00         -0.454724662276524E+00
  |   8          0.125501478692032E+00         -0.738908714655694E-01          0.131862574233184E+00
  |   9         -0.141114621338533E+00         -0.680328313218417E-01         -0.872417322089795E-01
  |  10          0.242172288377512E-03         -0.229466895078962E+00          0.688479389360380E-01
  |  11         -0.682406332845960E-01         -0.444182378597165E-01         -0.360360231396349E+00
  |  12          0.147995125582175E+00          0.352266382725606E-01          0.212932822387620E+00
  |  13         -0.289455705323668E-01          0.155202198323268E-01          0.998568988924282E-01
  |  14          0.194772633332557E-01         -0.945821986278554E-02          0.670261769717096E-01
  |  15          0.739591173417171E-01         -0.544878172045031E+00          0.953939286468268E-01
  |  16         -0.140134864946759E+00          0.391205071106266E+00         -0.997809498353358E-01
  |  17          0.719538577041237E-01         -0.727827014737435E-01         -0.126560371254895E+00
  |  18          0.150577741642358E+00         -0.113217733067082E+00          0.489015903364637E+00
  |  19          0.598457509886396E-01          0.799015193416450E-01          0.131550075627600E-01
  |  20          0.381608966623384E+00         -0.380953353403994E+00          0.172900977556742E+00
  |  21         -0.199844641262770E-01         -0.151280670388541E+00         -0.628032446994720E-01
  |  22         -0.479328825639508E+00          0.491805527874841E-01         -0.314340538927392E-01
  |  23          0.864813703047498E-02          0.807766841293452E-01         -0.255855653968025E+00
  |  24          0.215829948670154E-01          0.112052819686302E+00          0.208846097830015E+00
  |  25         -0.444066787889710E+00         -0.257290268915008E+00         -0.120109117099938E+01
  |  26         -0.357023005004995E+00          0.766003577410169E+00          0.755430115769427E+00
  |  27          0.108393643482653E+01          0.899974925120253E+00         -0.158178585548850E+01
  |  28         -0.118848869547193E+01          0.187343463362723E+01          0.414380418112165E+00
  |  29         -0.412144438082667E+00         -0.693754573690823E+00         -0.110284497299654E+01
  |  30         -0.125070280338429E+01         -0.646427989804451E+00          0.172673266943595E+00
  |  31          0.155556939206636E+01          0.570517710390280E+00         -0.148745235366122E+01
  |  32         -0.512553385475908E+00          0.268843481183985E+00          0.699559659186576E+00
  |  33         -0.621713246744460E-01         -0.380924269144886E+00          0.178805224834198E+00
  |  34         -0.841953055605748E+00          0.186618036348052E+00         -0.606085998390019E+00
  |  35         -0.124800348947799E+01          0.111686084101624E+01         -0.182543724198446E+00
  |  36          0.686829989148140E-01          0.978711378425663E+00          0.575399722520338E-01
  |  37         -0.104086718469034E+01         -0.434514310369519E+00          0.839856988081630E+00
  |  38          0.103238102583051E+01         -0.422684678277646E-01         -0.889477843341756E+00
  |  39          0.128299019919247E+01         -0.100761856444743E+01          0.456264778415584E+00
  |  40          0.386954092007703E+00         -0.518891627894090E+00          0.359630305332538E+00
  |  41         -0.295744497507629E-01          0.797703273490129E+00         -0.196404407729505E+01
  |  42         -0.758370531930088E+00          0.867264887403111E+00         -0.106531811472530E+01
  |  43          0.607764206261413E+00          0.146917174267792E+00         -0.618067978353962E+00
  |  44          0.253566361388168E+01         -0.113741180729235E+01          0.109246276912498E+01
  |  45         -0.233815327446006E+00         -0.481451361062338E+00          0.100780726936787E+01
  |  46         -0.283765186128056E+01          0.122226617440642E+01         -0.116707778258852E+01
  |  47          0.895033603497679E+00         -0.262525246994007E+00          0.280280640330356E+00
  |  48          0.531429830112820E+00          0.101632069988832E+01         -0.161925152415681E+01
  |  49          0.598398474989914E-03         -0.830188238218625E+00          0.200505640571296E+01
  |  50          0.379334444742445E+00         -0.146669501881967E+01          0.178251592894146E+01
  |  51          0.465829011284994E+00          0.100047813947178E+01         -0.257449350338508E-02
  |  52         -0.760948576974951E+00          0.397367935776553E+00         -0.133878813939460E+01
  |  53         -0.790984008735887E+00          0.699944997658478E+00         -0.140903491006486E+01
  |  54          0.321152811372216E+00          0.481809554184098E+00          0.555293974374261E+00
  |  55         -0.184969475102221E+01          0.959348899169627E+00          0.339094538074751E+00
  |  56          0.156761598395907E+01         -0.173067890869553E+01         -0.348784892852162E+00
  |  57         -0.108485253354602E-01         -0.179958809493032E+01          0.135592088066873E+01
  |  58         -0.233346276310677E+00         -0.155151682302560E+00          0.111364967808068E+01
  |  59          0.253366974812530E+00         -0.179206856201873E+01         -0.666478934675137E+00
  |  60         -0.715533496942010E+00          0.236520297960641E+01         -0.891344071684390E+00
  |  61          0.521048539195995E+00          0.277607618909391E-01          0.510471440925764E+00
  |  62          0.291177830297436E+01         -0.282412597650792E+01          0.122663208076678E+01
  |  63         -0.579552473546820E+00         -0.296120133961106E+00          0.398576144605439E+00
  |  64         -0.295835554116480E+01          0.278870594525441E+01         -0.782209190465399E+00
  |  65          0.434358763327526E+00          0.583999050720646E-01          0.330639506298286E+00
  |  66         -0.498247478141812E+00          0.122816064420584E+01         -0.269001597624472E+01
  |  67          0.148359096299271E+00         -0.287162832818226E+00          0.953821616966582E+00
  |  68          0.108848073657660E+01         -0.106128824506625E+01          0.172848871909432E+01
  |  69         -0.323717446904750E+00         -0.388957117268709E+00          0.276389596102599E-01
  |  70          0.177479281152176E+00          0.369018551266604E+00          0.172060958081528E+00
  |  71         -0.847720006148428E+00          0.179297688081553E+01         -0.128819757689356E+01
  |  72          0.218040304758706E+00          0.116179966552523E+01          0.307974125382243E+00
  |  73         -0.832549207063575E+00         -0.865704005960834E+00          0.921941467907536E+00
  |  74          0.969733584140622E+00         -0.792247668580340E+00         -0.637281372468674E+00
  |  75          0.855210537414331E+00         -0.327865021155443E+00          0.626697690437270E-01
  |  76         -0.539611520047749E-01         -0.562097016195128E+00          0.816351138084163E+00
  |  77          0.511230440476324E+00          0.744770797560572E+00         -0.160899042939503E+01
  |  78         -0.623526990390903E+00          0.887482425868501E+00         -0.725996221826876E+00
  |  79          0.226971631858728E+00          0.283246851425225E+00         -0.578605960856201E+00
  |  80          0.759747523979637E+00         -0.593294514682603E+00          0.582292049508739E+00
  |  81         -0.223071921445987E+00         -0.568058173148003E+00          0.118455426564647E+00
  |  82         -0.270837064061660E+00          0.157396566528698E+00          0.518120584175873E+00
  |  83          0.513647442274436E+00         -0.291723098304582E+00         -0.162796432669810E+00
  |  84          0.218205014953792E+00          0.126094176285744E+01         -0.185419169738418E+01
  |  85         -0.407088188607176E+00         -0.874815784746204E+00          0.173536998501586E+01
  |  86          0.326037341194329E+00         -0.143574979918361E+01          0.190796185334576E+01
  |  87         -0.223867372231956E+00          0.505297197707857E+00          0.485711339474400E-01
  |  88         -0.103991595927504E+01          0.113785589468078E+00         -0.988285371982271E+00
  |  89         -0.113104086509085E+01          0.138618086869518E+01         -0.101289047781388E+01
  |  90          0.119451701440596E+00          0.827663529298933E+00          0.135803728107150E+00
  |  91         -0.108521236536685E+01          0.131739774697563E+00          0.595164705856098E+00
  |  92          0.278930991304903E+01         -0.245476344938527E+01          0.486872333543259E+00
  |  93         -0.408035279835695E+00         -0.165666101343672E+01          0.169805222537287E+01
  |  94         -0.229811070480815E+00         -0.882846922315868E-02          0.856343032617214E+00
  |  95          0.590609082904942E+00          0.192044329548620E+01         -0.207725885442077E+01
  |  96         -0.144014818987767E+01          0.582834612666147E+00         -0.484832117809837E+00
  |  97          0.908483811765747E+00          0.378759881430947E+00         -0.102660154772253E-01
  |  98          0.135127502345314E+01         -0.583804641223241E+00         -0.351649395714457E+00
  |  99         -0.273612552456256E-01         -0.650279819014927E+00          0.243275214755358E+00
  | 100         -0.100840243627619E+01          0.710451606697145E+00          0.498407552686463E+00
  | 101          0.123617163157159E+01         -0.282850799062736E+00         -0.519179872795675E+00
  | 102          0.628508386089542E+00          0.134647041285868E+01         -0.101548401353201E+01
  | 103         -0.667799270921027E+00         -0.166108248966338E+01          0.218851666356025E+01
  | 104          0.963701103408756E-02         -0.171190056728070E+01          0.143391229449695E+01

  ------------------------------------ 
  Start decomposition of the XC Energy 
  ------------------------------------ 
  X and C from original XC functional choice 
  Hartree-Fock Energy :          0.000000000 Ha              0.000000000 eV
  X Energy            :      -2020.188202094 Ha         -54972.117929534 eV
  C Energy            :        -52.370158364 Ha          -1425.064515578 eV
  Total XC Energy     :      -2072.558360458 Ha         -56397.182445111 eV
  ------------------------------------ 
  LDA X and C from self-consistent density 
  X Energy LDA        :      -1872.529370142 Ha         -50954.116678484 eV
  C Energy LDA        :       -103.374149872 Ha          -2812.953739518 eV
  ------------------------------------ 
  End decomposition of the XC Energy 
  ------------------------------------ 

------------------------------------------------------------

------------------------------------------------------------------------------
  Final output of selected total energy values:

  The following output summarizes some interesting total energy values
  at the end of a run (AFTER all relaxation, molecular dynamics, etc.).

  | Total energy of the DFT / Hartree-Fock s.c.f. calculation      :        -859133.212285311 eV
  | Final zero-broadening corrected energy (caution - metals only) :        -859133.212285311 eV
  | For reference only, the value of 1 Hartree used in FHI-aims is :             27.211384500 eV

  Before relying on these values, please be sure to understand exactly which
  total energy value is referred to by a given number. Different objects may
  all carry the same name 'total energy'. Definitions:

  Total energy of the DFT / Hartree-Fock s.c.f. calculation:
  | Note that this energy does not include ANY quantities calculated after the
  | s.c.f. cycle, in particular not ANY RPA, MP2, etc. many-body perturbation terms.

  Final zero-broadening corrected energy:
  | For metallic systems only, a broadening of the occupation numbers at the Fermi
  | level can be extrapolated back to zero broadening by an electron-gas inspired
  | formula. For all systems that are not real metals, this value can be
  | meaningless and should be avoided.

------------------------------------------------------------------------------
  Methods described in the following list of references were used in this FHI-aims run.
  If you publish the results, please make sure to cite these reference if they apply.
  FHI-aims is an academic code, and for our developers (often, Ph.D. students
  and postdocs), scientific credit in the community is essential.
  Thank you for helping us!

  For any use of FHI-aims, please cite:

    Volker Blum, Ralf Gehrke, Felix Hanke, Paula Havu, Ville Havu,
    Xinguo Ren, Karsten Reuter, and Matthias Scheffler
    'Ab initio molecular simulations with numeric atom-centered orbitals'
    Computer Physics Communications 180, 2175-2196 (2009)
    http://dx.doi.org/10.1016/j.cpc.2009.06.022


  The provided symmetry information was generated with SPGlib:

    Atsushi Togo, Yusuke Seto, Dimitar Pashov
    SPGlib 1.7.3 obtained from http://spglib.sourceforge.net
    Copyright (C) 2008 Atsushi Togo


  The scalable eigensolver library ELPA was used in your run.
  ELPA is essential especially for large systems on hundreds or thousands of CPUs.
  For ELPA, please cite:

    Andreas Marek, Volker Blum, Rainer Johanni, Ville Havu, Bruno Lang,
    Thomas Auckenthaler, Alexander Heinecke, Hans-Joachim Bungartz, and Hermann Lederer,
    'The ELPA Library - Scalable Parallel Eigenvalue Solutions
    for Electronic Structure Theory and Computational Science'
    The Journal of Physics: Condensed Matter 26, 213201 (2014).
    http://dx.doi.org/10.1088/0953-8984/26/21/213201


  The ELSI infrastructure was used in your run to solve the Kohn-Sham electronic structure.
  Please check out http://elsi-interchange.org to learn more.
  If scalability is important for your project, please acknowledge ELSI by citing:

    V. W-z. Yu, F. Corsetti, A. Garcia, W. P. Huhn, M. Jacquelin, W. Jia,
    B. Lange, L. Lin, J. Lu, W. Mi, A. Seifitokaldani, A. Vazquez-Mayagoitia,
    C. Yang, H. Yang, and V. Blum
    'ELSI: A unified software interface for Kohn-Sham electronic structure solvers'
    Computer Physics Communications 222, 267-285 (2018).
    http://dx.doi.org/10.1016/j.cpc.2017.09.007


  For the real-space grid partitioning and parallelization used in this calculation, please cite:

    Ville Havu, Volker Blum, Paula Havu, and Matthias Scheffler,
    'Efficient O(N) integration for all-electron electronic structure calculation'
    'using numerically tabulated basis functions'
    Journal of Computational Physics 228, 8367-8379 (2009).
    http://dx.doi.org/10.1016/j.jcp.2009.08.008

  Of course, there are many other important community references, e.g., those cited in the
  above references. Our list is limited to references that describe implementations in the
  FHI-aims code. The reason is purely practical (length of this list) - please credit others as well.

------------------------------------------------------------
          Leaving FHI-aims.
          Date     :  20220704, Time     :  080145.222

          Computational steps:
          | Number of self-consistency cycles          :           22
          | Number of SCF (re)initializations          :            1

          Detailed time accounting                     :  max(cpu_time)    wall_clock(cpu1)
          | Total time                                 :     3656.363 s        3656.853 s
          | Preparation time                           :        0.466 s           0.472 s
          | Boundary condition initalization           :        0.884 s           0.885 s
          | Grid partitioning                          :        4.261 s           4.261 s
          | Preloading free-atom quantities on grid    :        0.035 s           0.034 s
          | Free-atom superposition energy             :        1.688 s           1.688 s
          | Total time for integrations                :      787.021 s         787.046 s
          | Total time for solution of K.-S. equations :       57.242 s          57.248 s
          | Total time for density & force components  :     2126.511 s        2126.549 s
          | Total time for mixing & preconditioning    :      247.330 s         247.371 s
          | Total time for Hartree multipole update    :        0.625 s           0.622 s
          | Total time for Hartree multipole sum       :      419.108 s         419.132 s
          | Total time for total energy evaluation     :        0.010 s           0.017 s

          Partial memory accounting:
          | Residual value for overall tracked memory usage across tasks :           0.000 MB (should be 0.000 MB)
          | Peak values for overall tracked memory usage (after allocating temp_ham_ovlp):
          |   Minimum:      507.666 MB (on task  1)
          |   Maximum:      507.666 MB (on task  1)
          |   Average:      507.666 MB
          | Largest tracked array allocation (overlap_matrix):
          |   Minimum:      132.872 MB (on task  1)
          |   Maximum:      132.872 MB (on task  1)
          |   Average:      132.872 MB
          Note:  These values currently only include a subset of arrays which are explicitly tracked.
          The "true" memory usage will be greater.

          Have a nice day.
------------------------------------------------------------
