  MPI-parallelism will be employed.
------------------------------------------------------------
          Invoking FHI-aims ...
          Version 171221_1
          Compiled on 2020/09/23 at 19:46:43 on host login.service.

          When using FHI-aims, please cite the following reference:

          Volker Blum, Ralf Gehrke, Felix Hanke, Paula Havu,
          Ville Havu, Xinguo Ren, Karsten Reuter, and Matthias Scheffler,
          'Ab Initio Molecular Simulations with Numeric Atom-Centered Orbitals',
          Computer Physics Communications 180, 2175-2196 (2009)

          For any questions about FHI-aims, please visit the aimsclub website
          with its forums and wiki. Contributions to both the forums and the
          wiki are warmly encouraged - they are for you, and everyone is welcome there.

------------------------------------------------------------



  Date     :  20220704, Time     :  055659.928
  Time zero on CPU 1             :   0.873240000000000E-01  s.
  Internal wall clock time zero  :           426146219.928  s.

  FHI-aims created a unique identifier for this run for later identification
  aims_uuid : 637756A4-DB33-4C96-A315-C9237BB93A90

  Using       20 parallel tasks.
  Task        0 on host node108 reporting.
  Task        1 on host node108 reporting.
  Task        2 on host node108 reporting.
  Task        3 on host node108 reporting.
  Task        4 on host node108 reporting.
  Task        5 on host node108 reporting.
  Task        6 on host node108 reporting.
  Task        7 on host node108 reporting.
  Task        8 on host node108 reporting.
  Task        9 on host node108 reporting.
  Task       10 on host node108 reporting.
  Task       11 on host node108 reporting.
  Task       12 on host node108 reporting.
  Task       13 on host node108 reporting.
  Task       14 on host node108 reporting.
  Task       15 on host node108 reporting.
  Task       16 on host node108 reporting.
  Task       17 on host node108 reporting.
  Task       18 on host node108 reporting.
  Task       19 on host node108 reporting.

  Performing system and environment tests:
  *** Environment variable OMP_NUM_THREADS is not set
  *** For performance reasons you might want to set it to 1
  | Maximum stacksize for task 0: unlimited
  | Maximum stacksize for task 1: unlimited
  | Maximum stacksize for task 2: unlimited
  | Maximum stacksize for task 3: unlimited
  | Maximum stacksize for task 4: unlimited
  | Maximum stacksize for task 5: unlimited
  | Maximum stacksize for task 6: unlimited
  | Maximum stacksize for task 7: unlimited
  | Maximum stacksize for task 8: unlimited
  | Maximum stacksize for task 9: unlimited
  | Maximum stacksize for task 10: unlimited
  | Maximum stacksize for task 11: unlimited
  | Maximum stacksize for task 12: unlimited
  | Maximum stacksize for task 13: unlimited
  | Maximum stacksize for task 14: unlimited
  | Maximum stacksize for task 15: unlimited
  | Maximum stacksize for task 16: unlimited
  | Maximum stacksize for task 17: unlimited
  | Maximum stacksize for task 18: unlimited
  | Maximum stacksize for task 19: unlimited
  | Current stacksize for task 0: unlimited
  | Current stacksize for task 1: unlimited
  | Current stacksize for task 2: unlimited
  | Current stacksize for task 3: unlimited
  | Current stacksize for task 4: unlimited
  | Current stacksize for task 5: unlimited
  | Current stacksize for task 6: unlimited
  | Current stacksize for task 7: unlimited
  | Current stacksize for task 8: unlimited
  | Current stacksize for task 9: unlimited
  | Current stacksize for task 10: unlimited
  | Current stacksize for task 11: unlimited
  | Current stacksize for task 12: unlimited
  | Current stacksize for task 13: unlimited
  | Current stacksize for task 14: unlimited
  | Current stacksize for task 15: unlimited
  | Current stacksize for task 16: unlimited
  | Current stacksize for task 17: unlimited
  | Current stacksize for task 18: unlimited
  | Current stacksize for task 19: unlimited
  | Checking for scalapack...
  | Testing pdtran()...
  | All pdtran() tests passed.

  Obtaining array dimensions for all initial allocations:
  
  -----------------------------------------------------------------------
  Parsing control.in (first pass over file, find array dimensions only).
  The contents of control.in will be repeated verbatim below
  unless switched off by setting 'verbatim_writeout .false.' .
  in the first line of control.in .
  -----------------------------------------------------------------------
  
  #===============================================================================
  # FHI-aims file: ./control.in
  # Created using the Atomic Simulation Environment (ASE)
  # Wed Mar 24 12:41:28 2021
  #===============================================================================
  xc                                 pbe
  sc_accuracy_etot                   1e-06
  sc_accuracy_eev                    0.001
  sc_accuracy_rho                    1e-06
  sc_accuracy_forces                 0.0001
  friction_temperature               300  # default 300
  
    k_grid                           1  1  2
  
  
  
  ################################################################################
  #
  #  FHI-aims code project
  # Volker Blum, Fritz Haber Institute Berlin, 2009
  #
  #  Suggested "tight" defaults for Li atom (to be pasted into control.in file)
  #
  #  2016/03/22: Increased cutoff radius to 5.0 AA (Xinguo Ren, Aug 15, 2015)
  #
  ################################################################################
    species        Li
  #     global species definitions
      nucleus             3
      mass                6.941
  #
      l_hartree           6
  #
      cut_pot             5.0  2.0  1.0
      basis_dep_cutoff    1e-4
  #
      radial_base         29 7.0
      radial_multiplier   2
      angular_grids       specified
        division   0.4484  110
        division   0.5659  194
        division   0.6315  302
        division   0.6662  434
  #      division   0.8186  590
  #      division   0.9037  770
  #      division   6.2760  974
  #      outer_grid   974
        outer_grid  434
  ################################################################################
  #
  #  Definition of "minimal" basis
  #
  ################################################################################
  #     valence basis states
      valence      2  s   1.
  #     ion occupancy
      ion_occ      1  s   2.
  ################################################################################
  #
  #  Suggested additional basis functions. For production calculations,
  #  uncomment them one after another (the most important basis functions are
  #  listed first).
  #
  #  Constructed for dimers: 1.80 A, 2.25 A, 2.75 A, 3.50 A, 4.50 A
  #
  ################################################################################
  #  "First tier" - improvements: -189.23 meV to -6.35 meV
       hydro 2 p 1.6
       hydro 2 s 2
       hydro 3 d 2.6
  #  "Second tier" - improvements: -4.69 meV to -0.41 meV
       hydro 3 p 4.6
       hydro 2 p 1.8
       hydro 3 s 6.2
       hydro 4 d 4.7
       hydro 4 f 4.1
  #  "Third tier" - improvements: -0.20 meV to -0.15 meV
  #     hydro 4 d 0.95
  #     hydro 3 p 6.2
  #     hydro 3 s 1.7
  #  Further functions, listed for completeness
  #     VB: The following functions are only listed for completeness; test very
  #         carefully before any kind of production use. From the point of view
  #         of the basis construction, their main role is to fill up space,
  #         and they are solely determined by the location of the cutoff potential.
  #     hydro 3 p 0.1  # -0.15 meV
  #     hydro 4 d 5    # -0.12 meV
  #     hydro 4 f 0.1  # -0.14 meV
  #     hydro 5 g 0.1  # -0.06 meV
  
  
  ################################################################################
  #
  # For methods that use the localized form of the "resolution of identity" for
  # the two-electron Coulomb operator (RI_method LVL), particularly Hartree-Fock and
  # hybrid density functional calculations, the highest accuracy can be obtained by
  # uncommenting the line beginning with "for_aux"  below, thus adding an extra g radial
  # function to the construction of the product basis set for the expansion.
  # See Ref. New J. Phys. 17, 093020 (2015) for more information, particularly Figs. 1 and 6.
  #
  ################################################################################
  #
  # for_aux hydro 5 g 6.0
  ################################################################################
  #
  #  FHI-aims code project
  # Volker Blum, Fritz Haber Institute Berlin, 2010
  #
  #  Suggested "tight" defaults for P atom (to be pasted into control.in file)
  #
  #  Revised Jan 04, 2011, following tests (SiC) done by Lydia Nemec:
  #     d function of tier 2 now enabled by default.
  #
  ################################################################################
    species        P
  #     global species definitions
      nucleus             15
      mass                30.973762
  #
      l_hartree           6
  #
      cut_pot             4.0          2.0  1.0
      basis_dep_cutoff    1e-4
  #
      radial_base         43 7.0
      radial_multiplier   2
      angular_grids       specified
        division   0.2995   50
        division   0.5998  110
        division   0.9240  194
        division   1.0921  302
        division   1.2863  434
  #      division   1.3165  590
  #      division   1.4113  770
  #      division   1.5128  974
  #      division   2.4980 1202
        outer_grid  434
  ################################################################################
  #
  #  Definition of "minimal" basis
  #
  ################################################################################
  #     valence basis states
      valence      3  s   2.
      valence      3  p   3.
  #     ion occupancy
      ion_occ      3  s   1.
      ion_occ      3  p   2.
  ################################################################################
  #
  #  Suggested additional basis functions. For production calculations,
  #  uncomment them one after another (the most important basis functions are
  #  listed first).
  #
  #  Constructed for dimers: 1.625 A, 1.875 A, 2.5 A, 3.25 A, 4.0 A
  #
  ################################################################################
  #  "First tier" - improvements: -726.20 meV to -35.91 meV
       ionic 3 d auto
       ionic 3 p auto
       hydro 4 f 6.2
       hydro 5 g 8.6
       ionic 3 s auto
  #  "Second tier" - improvements: -16.02 meV to -1.71 meV
       hydro 4 d 6.2
  #     hydro 4 p 9.2
  #     hydro 5 f 9.8
  #     hydro 1 s 0.7
  #     hydro 5 g 13.2
  #  "Third tier" - improvements: -1.82 meV to -0.20 meV
  #     hydro 3 p 2.5
  #     hydro 4 d 6.4
  #     hydro 5 f 11.2
  #     hydro 2 s 1.5
  #  "Fourth tier" - improvements: -0.91 meV to -0.17 meV
  #     hydro 3 d 16.8
  #     hydro 5 g 18
  #     hydro 4 p 4.5
  #     hydro 3 s 2.1
  #  Further basis functions that fell out of the optimization - < -0.09 meV
  #     hydro 4 p 10.4
  #     hydro 4 d 17.6
  #     hydro 4 s 11.2
  ################################################################################
  #
  # For methods that use the localized form of the "resolution of identity" for
  # the two-electron Coulomb operator (RI_method LVL), particularly Hartree-Fock and
  # hybrid density functional calculations, the highest accuracy can be obtained by
  # uncommenting the line beginning with "for_aux"  below, thus adding an extra g radial
  # function to the construction of the product basis set for the expansion.
  # See Ref. New J. Phys. 17, 093020 (2015) for more information, particularly Figs. 1 and 6.
  #
  ################################################################################
  #
  # for_aux hydro 5 g 6.0
  ################################################################################
  #
  #  FHI-aims code project
  # Volker Blum, Fritz Haber Institute Berlin, 2009
  #
  #  Suggested "tight" defaults for S atom (to be pasted into control.in file)
  #
  #  Revised Jan 04, 2011, following tests (SiC) done by Lydia Nemec:
  #     d and g functions of tier 2 now enabled by default.
  #
  ################################################################################
    species        S
  #     global species definitions
      nucleus             16
      mass                32.065
  #
      l_hartree           6
  #
      cut_pot             4.0          2.0  1.0
      basis_dep_cutoff    1e-4
  #
      radial_base         44 7.0
      radial_multiplier   2
      angular_grids       specified
        division   0.4665  110
        division   0.5810  194
        division   0.7139  302
        division   0.8274  434
  #      division   0.9105  590
  #      division   1.0975  770
  #      division   1.2028  974
  #      outer_grid  974
        outer_grid  434
  ################################################################################
  #
  #  Definition of "minimal" basis
  #
  ################################################################################
  #     valence basis states
      valence      3  s   2.
      valence      3  p   4.
  #     ion occupancy
      ion_occ      3  s   1.
      ion_occ      3  p   3.
  ################################################################################
  #
  #  Suggested additional basis functions. For production calculations,
  #  uncomment them one after another (the most important basis functions are
  #  listed first).
  #
  #  Constructed for dimers: 1.6 A, 1.9 A, 2.5 A, 3.25 A, 4.0 A
  #
  ################################################################################
  #  "First tier" - improvements: -652.81 meV to -45.53 meV
       ionic 3 d auto
       hydro 2 p 1.8
       hydro 4 f 7
       ionic 3 s auto
  #  "Second tier" - improvements: -30.20 meV to -1.74 meV
       hydro 4 d 6.2
       hydro 5 g 10.8
  #     hydro 4 p 4.9
  #     hydro 5 f 10
  #     hydro 1 s 0.8
  #  "Third tier" - improvements: -1.04 meV to -0.20 meV
  #     hydro 3 d 3.9
  #     hydro 3 d 2.7
  #     hydro 5 g 12
  #     hydro 4 p 10.4
  #     hydro 5 f 12.4
  #     hydro 2 s 1.9
  #  "Fourth tier" - improvements: -0.35 meV to -0.06 meV
  #     hydro 4 d 10.4
  #     hydro 4 p 7.2
  #     hydro 4 d 10
  #     hydro 5 g 19.2
  #     hydro 4 s 12
  
  ################################################################################
  #
  # For methods that use the localized form of the "resolution of identity" for
  # the two-electron Coulomb operator (RI_method LVL), particularly Hartree-Fock and
  # hybrid density functional calculations, the highest accuracy can be obtained by
  # uncommenting the line beginning with "for_aux"  below, thus adding an extra g radial
  # function to the construction of the product basis set for the expansion.
  # See Ref. New J. Phys. 17, 093020 (2015) for more information, particularly Figs. 1 and 6.
  #
  ################################################################################
  #
  # for_aux hydro 5 g 6.0
  ################################################################################
  #
  #  FHI-aims code project
  # Volker Blum, Fritz Haber Institute Berlin, 2009
  #
  #  Suggested "tight" defaults for Cl atom (to be pasted into control.in file)
  #
  #  Revised Jan 04, 2011, following tests (SiC) done by Lydia Nemec:
  #     d function of tier 2 now enabled by default.
  #
  ################################################################################
    species        Cl
  #     global species definitions
      nucleus             17
      mass                35.453
  #
      l_hartree           6
  #
      cut_pot             4.0          2.0  1.0
      basis_dep_cutoff    1e-4
  #
      radial_base         45 7.0
      radial_multiplier   2
      angular_grids       specified
        division   0.4412  110
        division   0.5489  194
        division   0.6734  302
        division   0.7794  434
  #      division   0.9402  590
  #      division   1.0779  770
  #      division   1.1792  974
  #      outer_grid  974
        outer_grid  434
  ################################################################################
  #
  #  Definition of "minimal" basis
  #
  ################################################################################
  #     valence basis states
      valence      3  s   2.
      valence      3  p   5.
  #     ion occupancy
      ion_occ      3  s   1.
      ion_occ      3  p   4.
  ################################################################################
  #
  #  Suggested additional basis functions. For production calculations,
  #  uncomment them one after another (the most important basis functions are
  #  listed first).
  #
  #  Constructed for dimers: 1.65 A, 2.0 A, 2.5 A, 3.25 A, 4.0 A
  #
  ################################################################################
  #  "First tier" - improvements: -429.57 meV to -15.03 meV
       ionic 3 d auto
       hydro 2 p 1.9
       hydro 4 f 7.4
       ionic 3 s auto
       hydro 5 g 10.4
  #  "Second tier" - improvements: -7.84 meV to -0.48 meV
       hydro 3 d 3.3
  #     hydro 5 f 9.8
  #     hydro 1 s 0.75
  #     hydro 5 g 11.2
  #     hydro 4 p 10.4
  #  "Third tier" - improvements: -1.00 meV to -0.12 meV
  #     hydro 4 d 12.8
  #     hydro 4 f 4.6
  #     hydro 4 d 10.8
  #     hydro 2 s 1.8
  #     hydro 3 p 3
  #  Further functions that fell out - improvements: -0.10 meV and below
  #     hydro 5 f 14.4
  #     hydro 4 s 12.8
  #     hydro 3 d 11.6
  #     hydro 4 s 4.1
  ################################################################################
  #
  # For methods that use the localized form of the "resolution of identity" for
  # the two-electron Coulomb operator (RI_method LVL), particularly Hartree-Fock and
  # hybrid density functional calculations, the highest accuracy can be obtained by
  # uncommenting the line beginning with "for_aux"  below, thus adding an extra g radial
  # function to the construction of the product basis set for the expansion.
  # See Ref. New J. Phys. 17, 093020 (2015) for more information, particularly Figs. 1 and 6.
  #
  ################################################################################
  #
  # for_aux hydro 5 g 6.0
  
  -----------------------------------------------------------------------
  Completed first pass over input file control.in .
  -----------------------------------------------------------------------
  
  
  -----------------------------------------------------------------------
  Parsing geometry.in (first pass over file, find array dimensions only).
  The contents of geometry.in will be repeated verbatim below
  unless switched off by setting 'verbatim_writeout .false.' .
  in the first line of geometry.in .
  -----------------------------------------------------------------------
  
  #=======================================================
  # FHI-aims file: ./data/test_rep/geometry.in.1
  # Created using the Atomic Simulation Environment (ASE)
  # Mon Jul  4 10:21:46 2022
  #=======================================================
  lattice_vector 19.0084368896640008 0.0000000000000000 0.0000000000000000
  lattice_vector 0.0000000000000000 15.7797747802559982 0.0000000000000000
  lattice_vector 0.0000000000000000 0.0000000000000000 7.2952070617919995
  atom 2.6235769171199999 2.3353956460799998 4.5212225711999992 Li
  atom 1.6970612419200000 7.9183380230399996 4.1037218159999993 Li
  atom 8.7018851126399994 3.5690137651199998 2.7493173369599999 Li
  atom 6.6389116387199998 1.3547007254399999 6.1483028294400004 Li
  atom 7.8133192579199999 0.9000766243200000 2.9795880163199997 Li
  atom 6.4914647404799997 5.7681548284799993 3.3585592953600001 Li
  atom 12.1620876048000000 2.3292860822399999 2.5143894307199997 Li
  atom 11.5964032617599990 8.2162151769600005 4.2487665974399995 Li
  atom 18.6563655609600012 4.4679000681599996 4.1287644431999997 Li
  atom 13.5200828399999988 2.8225053878400002 6.1161307593599998 Li
  atom 17.2965790665599997 1.0071259622400000 4.4493515529599996 Li
  atom 15.4210380153599989 7.0217800464000000 5.1847543545599999 Li
  atom 3.3454667462400001 10.7229247987199994 4.4634726000000002 Li
  atom 1.3167071980800000 15.7185206591999975 4.1687255923199995 Li
  atom 8.8475719094400009 11.9842982496000001 3.9224019244799999 Li
  atom 6.3792482006399993 8.4941489529599998 4.5883452652800001 Li
  atom 8.0361128995199991 8.8366005523200002 2.1518416137599998 Li
  atom 6.3405922425599996 13.9748671795200003 4.4538202828799998 Li
  atom 12.0779879385599997 10.6943180352000002 2.5317453820800000 Li
  atom 11.0026875859199986 15.6857246956800012 3.3472144089599998 Li
  atom 0.1601118988800000 12.3783689971199991 4.2829558367999994 Li
  atom 15.6980022288000001 10.0272335174400009 6.0903654470399990 Li
  atom 17.7336643843200008 8.5215621619200004 3.1392404169599999 Li
  atom 15.9753131375999988 14.4954406742399993 5.0609017967999996 Li
  atom 8.8121902963200007 6.9255685833599996 4.3389356217599993 P
  atom 4.5287632473599997 0.6230641727999999 3.2712814435199999 P
  atom 18.4891258742399991 7.6816811299199985 6.1373160249599996 P
  atom 14.3693888515200001 1.1104454985599999 2.8226258975999996 P
  atom 8.9370980361600001 15.0965278876799989 5.0989262207999992 P
  atom 4.2787647897600003 8.2061089900799988 2.6505256694399999 P
  atom 18.4978940918399992 15.4282421923200008 6.2594923199999997 P
  atom 14.2601571772800000 8.6072517158399986 3.1852758988800001 P
  atom 1.1593923715200001 0.7085421628799999 6.4917049420800002 S
  atom 2.8108221119999999 0.4002927062400000 2.4204532713600000 S
  atom 5.2823502038400001 2.5131189849600002 2.2191925929599998 S
  atom 8.6811355123199991 5.9477185843199996 2.5409874384000002 S
  atom 7.5301145299199996 14.8855385462399994 6.3986721388799994 S
  atom 5.9922088003200003 7.4167767628799997 2.1660659328000000 S
  atom 10.4608810310400013 6.2469745814400000 5.2973652988800000 S
  atom 4.4046338726399998 1.1913495455999998 5.1934678780799999 S
  atom 0.3597320832000000 2.5474092441599998 2.1881369433600000 S
  atom 1.2238696214400000 4.4104570473600004 2.2927927055999997 S
  atom 6.9218484153599995 2.1188497833600000 1.2713718547199999 S
  atom 7.4021528121599998 2.9243984659199995 4.5907950873600001 S
  atom 10.7510887775999997 4.4831961974399999 4.2616792559999999 S
  atom 5.8193981951999998 3.7184642351999999 3.9823782163199999 S
  atom 2.9901785731200001 4.3462293849599991 3.2443834041599997 S
  atom 2.8722676204800002 5.5590795014400003 4.9685921126399997 S
  atom 0.3749378150400000 2.1271562313600003 4.0793053411199995 S
  atom 2.1722224262400003 4.4914302240000001 6.3903182188799992 S
  atom 9.5254971513599980 1.1613634684799998 4.9182520492799995 S
  atom 13.5041654476800002 1.0018260921600000 1.0971471638399999 S
  atom 15.3104478844799985 3.0522666547199999 2.8830498451200000 S
  atom 18.3840568089599969 6.7406738015999998 4.2807221241599995 S
  atom 16.8598959609599994 0.5189905526400000 6.7159167244800004 S
  atom 15.5318717395199979 7.2706833427199999 2.8066927046399996 S
  atom 18.5924365372800011 6.1918608268800002 0.1737816144000000 S
  atom 12.9747821404799986 1.2281047449600000 4.2648556761599998 S
  atom 9.8824086172800012 1.6278002035199999 0.3559424227200000 S
  atom 9.7185531743999984 3.5128637625599999 0.1074728707200000 S
  atom 16.5562668009599996 3.2246669625599997 4.3678016937599997 S
  atom 15.6485584963199997 3.8706197212799998 6.2176344508799994 S
  atom 0.1512402595200000 4.5460168012800004 6.4427571983999998 S
  atom 14.2998764476799991 5.0654701036799992 5.8335132844799995 S
  atom 11.6666917651199995 4.2018825619199998 7.2887524713599996 S
  atom 12.0773908521599989 5.5535843500799995 1.5374446588799999 S
  atom 9.9830714803199996 1.6131016742399999 2.3404822732799997 S
  atom 12.4553419641600005 4.7372560483199999 3.2061922233600000 S
  atom 1.0394488319999999 8.8815098313600007 6.3523777171199995 S
  atom 2.6782213622400000 7.4041522588799999 1.8188528764800000 S
  atom 4.5106280256000000 10.1255348774399998 1.9829319379200001 S
  atom 8.5952893411199991 14.0550676963199983 3.3470702640000001 S
  atom 7.2596553849599994 6.6973592208000001 5.4878961571199998 S
  atom 5.8719287625599996 15.1883507548800001 2.6792071564800000 S
  atom 10.7942308137600005 14.5975267996799989 5.7509346211199999 S
  atom 4.0870091567999998 8.5646749948799989 4.6207921478399996 S
  atom 1.2332410156800000 10.6686457804800003 1.9525874495999997 S
  atom 1.5783610185599999 12.6469810032000005 2.3353841299200000 S
  atom 6.4019363472000004 10.7511854399999986 2.2293525715199998 S
  atom 6.7370830540800002 10.8901419820799994 4.2723995116799998 S
  atom 10.6832531999999993 12.5975034825600005 5.3646188764799998 S
  atom 5.4125405145599998 12.0007211567999992 5.2121994076800000 S
  atom 3.3046040054399999 12.8420976595200003 3.4230499737600000 S
  atom 2.9119795257600001 14.0130110975999997 5.1122641411199998 S
  atom 0.8619521760000000 10.0817279203199988 3.7802731007999997 S
  atom 2.4602401008000001 12.9389063702399998 6.6203466988799997 S
  atom 9.3409102367999992 8.8430094451199999 4.3219360127999993 S
  atom 12.5945265254399992 8.4995317084800011 2.1733108233600000 S
  atom 14.9821444444799994 10.4006197353599994 2.4720647731200001 S
  atom 18.3156943900799973 14.4805320499199990 4.3983092419199998 S
  atom 16.8031614297599994 8.3182251177600008 6.8895553756799996 S
  atom 15.6932606611199983 15.6069688607999986 2.9999703715199999 S
  atom 18.4967588351999979 13.9543030406399993 0.2840433033600000 S
  atom 13.7729007465599995 8.8200591359999994 5.1122023958399998 S
  atom 10.0431324729600000 11.8090572518399988 0.8013093350400000 S
  atom 11.1288880684799985 13.4595983740799987 1.4132332588799998 S
  atom 16.8921782774399993 10.6254210220799994 2.6813417280000000 S
  atom 17.1316189574400006 11.2406700652799980 4.7955583075199995 S
  atom 0.4677774096000000 12.5015713622400000 6.6115866489599995 S
  atom 15.6040296787199999 12.2006336659199999 5.4931667097599997 S
  atom 12.9898225977599981 12.8417844566399992 1.6733691360000000 S
  atom 13.3193281420799998 13.4876709062400000 3.6006555619200000 S
  atom 9.7966729132800001 10.6205884876799992 2.2693000233600000 S
  atom 12.5868686380800003 12.1525876588799999 4.7580695923200000 S
  
  -----------------------------------------------------------------------
  Completed first pass over input file geometry.in .
  -----------------------------------------------------------------------
  

  Basic array size parameters:
  | Number of species                 :        4
  | Number of atoms                   :      104
  | Number of lattice vectors         :        3
  | Max. basis fn. angular momentum   :        4
  | Max. atomic/ionic basis occupied n:        3
  | Max. number of basis fn. types    :        3
  | Max. radial fns per species/type  :        8
  | Max. logarithmic grid size        :     1362
  | Max. radial integration grid size :       91
  | Max. angular integration grid size:      434
  | Max. angular grid division number :        8
  | Radial grid for Hartree potential :     1362
  | Number of spin channels           :        1

------------------------------------------------------------
          Reading file control.in.
------------------------------------------------------------
  XC: Using PBE gradient-corrected functionals.
  Convergence accuracy of total energy:  0.1000E-05
  Convergence accuracy of sum of eigenvalues:  0.1000E-02
  Convergence accuracy of self-consistent charge density:  0.1000E-05
  Convergence accuracy of forces:  0.1000E-03
  Friction is calculated at temperature of   0.3000E+03 K
  Found k-point grid:         1         1         2
 
  Reading configuration options for species Li                  .
  | Found nuclear charge :   3.0000
  | Found atomic mass :    6.94100000000000      amu
  | Found l_max for Hartree potential  :   6
  | Found cutoff potl. onset [A], width [A], scale factor :    5.00000    2.00000    1.00000
  | Threshold for basis-dependent cutoff potential is   0.100000E-03
  | Found data for basic radial integration grid :    29 points, outermost radius =    7.000 A
  | Found multiplier for basic radial grid :   2
  | Found angular grid specification: user-specified.
  | Specified grid contains     5 separate shells.
  | Check grid settings after all constraints further below.
  | Found free-atom valence shell :  2 s   1.000
  | Found free-ion valence shell :  1 s   2.000
  | Found hydrogenic basis function :  2 p   1.600
  | Found hydrogenic basis function :  2 s   2.000
  | Found hydrogenic basis function :  3 d   2.600
  | Found hydrogenic basis function :  3 p   4.600
  | Found hydrogenic basis function :  2 p   1.800
  | Found hydrogenic basis function :  3 s   6.200
  | Found hydrogenic basis function :  4 d   4.700
  | Found hydrogenic basis function :  4 f   4.100
  Species Li                  : Missing cutoff potential type.
  Defaulting to exp(1/x)/(1-x)^2 type cutoff potential.
  Species Li: No 'logarithmic' tag. Using default grid for free atom:
  | Default logarithmic grid data [bohr] : 0.1000E-03 0.1000E+03 0.1012E+01
  Species Li: On-site basis accuracy parameter (for Gram-Schmidt orthonormalisation) not specified.
  Using default value basis_acc =  0.1000000E-03.
  Species Li                  : Using default innermost maximum threshold i_radial=  2 for radial functions.
  Species Li                  : Default cutoff onset for free atom density etc. : 0.50000000E+01 AA.
  Species Li                  : Basic radial grid will be enhanced according to radial_multiplier =   2, to contain    59 grid points.
 
  Reading configuration options for species P                   .
  | Found nuclear charge :  15.0000
  | Found atomic mass :    30.9737620000000      amu
  | Found l_max for Hartree potential  :   6
  | Found cutoff potl. onset [A], width [A], scale factor :    4.00000    2.00000    1.00000
  | Threshold for basis-dependent cutoff potential is   0.100000E-03
  | Found data for basic radial integration grid :    43 points, outermost radius =    7.000 A
  | Found multiplier for basic radial grid :   2
  | Found angular grid specification: user-specified.
  | Specified grid contains     6 separate shells.
  | Check grid settings after all constraints further below.
  | Found free-atom valence shell :  3 s   2.000
  | Found free-atom valence shell :  3 p   3.000
  | Found free-ion valence shell :  3 s   1.000
  | Found free-ion valence shell :  3 p   2.000
  | Found ionic basis function :  3 d , default cutoff radius.
  | Found ionic basis function :  3 p , default cutoff radius.
  | Found hydrogenic basis function :  4 f   6.200
  | Found hydrogenic basis function :  5 g   8.600
  | Found ionic basis function :  3 s , default cutoff radius.
  | Found hydrogenic basis function :  4 d   6.200
  Species P                   : Missing cutoff potential type.
  Defaulting to exp(1/x)/(1-x)^2 type cutoff potential.
  Species P : No 'logarithmic' tag. Using default grid for free atom:
  | Default logarithmic grid data [bohr] : 0.1000E-03 0.1000E+03 0.1012E+01
  | Will include ionic basis functions of  2.0-fold positive P                    ion.
  Species P : On-site basis accuracy parameter (for Gram-Schmidt orthonormalisation) not specified.
  Using default value basis_acc =  0.1000000E-03.
  Species P                   : Using default innermost maximum threshold i_radial=  2 for radial functions.
  Species P                   : Default cutoff onset for free atom density etc. : 0.40000000E+01 AA.
  Species P                   : Basic radial grid will be enhanced according to radial_multiplier =   2, to contain    87 grid points.
 
  Reading configuration options for species S                   .
  | Found nuclear charge :  16.0000
  | Found atomic mass :    32.0650000000000      amu
  | Found l_max for Hartree potential  :   6
  | Found cutoff potl. onset [A], width [A], scale factor :    4.00000    2.00000    1.00000
  | Threshold for basis-dependent cutoff potential is   0.100000E-03
  | Found data for basic radial integration grid :    44 points, outermost radius =    7.000 A
  | Found multiplier for basic radial grid :   2
  | Found angular grid specification: user-specified.
  | Specified grid contains     5 separate shells.
  | Check grid settings after all constraints further below.
  | Found free-atom valence shell :  3 s   2.000
  | Found free-atom valence shell :  3 p   4.000
  | Found free-ion valence shell :  3 s   1.000
  | Found free-ion valence shell :  3 p   3.000
  | Found ionic basis function :  3 d , default cutoff radius.
  | Found hydrogenic basis function :  2 p   1.800
  | Found hydrogenic basis function :  4 f   7.000
  | Found ionic basis function :  3 s , default cutoff radius.
  | Found hydrogenic basis function :  4 d   6.200
  | Found hydrogenic basis function :  5 g  10.800
  Species S                   : Missing cutoff potential type.
  Defaulting to exp(1/x)/(1-x)^2 type cutoff potential.
  Species S : No 'logarithmic' tag. Using default grid for free atom:
  | Default logarithmic grid data [bohr] : 0.1000E-03 0.1000E+03 0.1012E+01
  | Will include ionic basis functions of  2.0-fold positive S                    ion.
  Species S : On-site basis accuracy parameter (for Gram-Schmidt orthonormalisation) not specified.
  Using default value basis_acc =  0.1000000E-03.
  Species S                   : Using default innermost maximum threshold i_radial=  2 for radial functions.
  Species S                   : Default cutoff onset for free atom density etc. : 0.40000000E+01 AA.
  Species S                   : Basic radial grid will be enhanced according to radial_multiplier =   2, to contain    89 grid points.
 
  Reading configuration options for species Cl                  .
  | Found nuclear charge :  17.0000
  | Found atomic mass :    35.4530000000000      amu
  | Found l_max for Hartree potential  :   6
  | Found cutoff potl. onset [A], width [A], scale factor :    4.00000    2.00000    1.00000
  | Threshold for basis-dependent cutoff potential is   0.100000E-03
  | Found data for basic radial integration grid :    45 points, outermost radius =    7.000 A
  | Found multiplier for basic radial grid :   2
  | Found angular grid specification: user-specified.
  | Specified grid contains     5 separate shells.
  | Check grid settings after all constraints further below.
  | Found free-atom valence shell :  3 s   2.000
  | Found free-atom valence shell :  3 p   5.000
  | Found free-ion valence shell :  3 s   1.000
  | Found free-ion valence shell :  3 p   4.000
  | Found ionic basis function :  3 d , default cutoff radius.
  | Found hydrogenic basis function :  2 p   1.900
  | Found hydrogenic basis function :  4 f   7.400
  | Found ionic basis function :  3 s , default cutoff radius.
  | Found hydrogenic basis function :  5 g  10.400
  | Found hydrogenic basis function :  3 d   3.300
  Species Cl                  : Missing cutoff potential type.
  Defaulting to exp(1/x)/(1-x)^2 type cutoff potential.
  Species Cl: No 'logarithmic' tag. Using default grid for free atom:
  | Default logarithmic grid data [bohr] : 0.1000E-03 0.1000E+03 0.1012E+01
  | Will include ionic basis functions of  2.0-fold positive Cl                   ion.
  Species Cl: On-site basis accuracy parameter (for Gram-Schmidt orthonormalisation) not specified.
  Using default value basis_acc =  0.1000000E-03.
  Species Cl                  : Using default innermost maximum threshold i_radial=  2 for radial functions.
  Species Cl                  : Default cutoff onset for free atom density etc. : 0.40000000E+01 AA.
  Species Cl                  : Basic radial grid will be enhanced according to radial_multiplier =   2, to contain    91 grid points.
 
  Finished reading input file 'control.in'. Consistency checks are next.
 
  MPI_IN_PLACE appears to work with this MPI implementation.
  | Keeping use_mpi_in_place .true. (see manual).
  Target number of points in a grid batch is not set. Defaulting to  100
  Method for grid partitioning is not set. Defaulting to parallel hash+maxmin partitioning.
  Batch size limit is not set. Defaulting to    200
  By default, will store active basis functions for each batch.
  If in need of memory, prune_basis_once .false. can be used to disable this option.
  communication_type for Hartree potential was not specified.
  Defaulting to calc_hartree .
  Defaulting to Pulay charge density mixer.
  Pulay mixer: Number of relevant iterations not set.
  Defaulting to    8 iterations.
  Pulay mixer: Number of initial linear mixing iterations not set.
  Defaulting to    0 iterations.
  Work space size for distributed Hartree potential not set.
  Defaulting to   0.200000E+03 MB.
  Mixing parameter for charge density mixing has not been set.
  Using default: charge_mix_param =     0.0500.
  The mixing parameter will be adjusted in iteration number     2 of the first full s.c.f. cycle only.
  Algorithm-dependent basis array size parameters:
  | n_max_pulay                         :        8
  Maximum number of self-consistency iterations not provided.
  Presetting  1000 iterations.
  Presetting      1001 iterations before the initial mixing cycle
  is restarted anyway using the sc_init_iter criterion / keyword.
  Presetting a factor      1.000 between actual scf density residual
  and density convergence criterion sc_accuracy_rho below which sc_init_iter
  takes no effect.
  Geometry relaxation not requested: no relaxation will be performed.
  Handling of forces: Unphysical translation and rotation will be removed from forces.
  No accuracy limit for integral partition fn. given. Defaulting to  0.1000E-14.
  No threshold value for u(r) in integrations given. Defaulting to  0.1000E-05.
  No occupation type (smearing scheme) given. Defaulting to Gaussian broadening, width =  0.1000E-01 eV.
  The width will be adjusted in iteration number     2 of the first full s.c.f. cycle only.
  S.C.F. convergence parameters will be adjusted in iteration number     2 of the first full s.c.f. cycle only.
  No accuracy for occupation numbers given. Defaulting to  0.1000E-12.
  No threshold value for occupation numbers given. Defaulting to  0.0000E+00.
  No accuracy for fermi level given. Defaulting to  0.1000E-19.
  Maximum # of iterations to find E_F not set. Defaulting to  200.
  Preferred method for the eigenvalue solver ('KS_method') not specified in 'control.in'.
  Calling BLACS routine to test compilation state
  Since ScaLAPACK support is enabled, defaulting to 'elsi'.
  Will not use alltoall communication since running on < 1024 CPUs.
  Threshold for basis singularities not set.
  Default threshold for basis singularities:  0.1000E-04
  partition_type (choice of integration weights) for integrals was not specified.
  | Using a version of the partition function of Stratmann and coworkers ('stratmann_smoother').
  | At each grid point, the set of atoms used to build the partition table is smoothly restricted to
  | only those atoms whose free-atom density would be non-zero at that grid point.
  Partitioning for Hartree potential was not defined. Using partition_type for integrals.
  | Adjusted default value of keyword multip_moments_threshold to:       0.10000000E-11
  | This value may affect high angular momentum components of the Hartree potential in periodic systems.
  Spin handling was not defined in control.in. Defaulting to unpolarized case.
  Angular momentum expansion for Kerker preconditioner not set explicitly.
  | Using default value of   0
  No explicit requirement for turning off preconditioner.
  | By default, it will be turned off when the charge convergence reaches
  | sc_accuracy_rho  =   0.100000E-05
  | sc_accuracy_eev  =   0.100000E-02
  | sc_accuracy_etot =   0.100000E-05
  No special mixing parameter while Kerker preconditioner is on.
  Using default: charge_mix_param =     0.0500.
  No q(lm)/r^(l+1) cutoff set for long-range Hartree potential.
  | Using default value of  0.100000E-09 .
  | Verify using the multipole_threshold keyword.
  Defaulting to new monopole extrapolation.
  Density update method: automatic selection selected.
  Using density matrix based charge density update.
  Using density matrix based charge density update.
  Using packed matrix style: index .
  Defaulting to use time-reversal symmetry for k-point grid.
------------------------------------------------------------


------------------------------------------------------------
          Reading geometry description geometry.in.
------------------------------------------------------------
 * Warning! You did not set the 'relativistic' flag in input file 'control.in'.
 * Since you are not attempting to treat any elements beyond Ca(Z=20), FHI-aims
 * will default to 'relativistic none'.
 * You must ensure that this is really what you want!!
 * For example, DO NOT compute total-energy differences between results from
 * different settings of the 'relativistic' flag.
  Input structure read successfully.
  The structure contains      104 atoms,  and a total of       1344.000 electrons.

  Input geometry:
  | Unit cell:
  |       19.00843689        0.00000000        0.00000000
  |        0.00000000       15.77977478        0.00000000
  |        0.00000000        0.00000000        7.29520706
  | Atomic structure:
  |       Atom                x [A]            y [A]            z [A]
  |    1: Species Li            2.62357692        2.33539565        4.52122257
  |    2: Species Li            1.69706124        7.91833802        4.10372182
  |    3: Species Li            8.70188511        3.56901377        2.74931734
  |    4: Species Li            6.63891164        1.35470073        6.14830283
  |    5: Species Li            7.81331926        0.90007662        2.97958802
  |    6: Species Li            6.49146474        5.76815483        3.35855930
  |    7: Species Li           12.16208760        2.32928608        2.51438943
  |    8: Species Li           11.59640326        8.21621518        4.24876660
  |    9: Species Li           18.65636556        4.46790007        4.12876444
  |   10: Species Li           13.52008284        2.82250539        6.11613076
  |   11: Species Li           17.29657907        1.00712596        4.44935155
  |   12: Species Li           15.42103802        7.02178005        5.18475435
  |   13: Species Li            3.34546675       10.72292480        4.46347260
  |   14: Species Li            1.31670720       15.71852066        4.16872559
  |   15: Species Li            8.84757191       11.98429825        3.92240192
  |   16: Species Li            6.37924820        8.49414895        4.58834527
  |   17: Species Li            8.03611290        8.83660055        2.15184161
  |   18: Species Li            6.34059224       13.97486718        4.45382028
  |   19: Species Li           12.07798794       10.69431804        2.53174538
  |   20: Species Li           11.00268759       15.68572470        3.34721441
  |   21: Species Li            0.16011190       12.37836900        4.28295584
  |   22: Species Li           15.69800223       10.02723352        6.09036545
  |   23: Species Li           17.73366438        8.52156216        3.13924042
  |   24: Species Li           15.97531314       14.49544067        5.06090180
  |   25: Species P             8.81219030        6.92556858        4.33893562
  |   26: Species P             4.52876325        0.62306417        3.27128144
  |   27: Species P            18.48912587        7.68168113        6.13731602
  |   28: Species P            14.36938885        1.11044550        2.82262590
  |   29: Species P             8.93709804       15.09652789        5.09892622
  |   30: Species P             4.27876479        8.20610899        2.65052567
  |   31: Species P            18.49789409       15.42824219        6.25949232
  |   32: Species P            14.26015718        8.60725172        3.18527590
  |   33: Species S             1.15939237        0.70854216        6.49170494
  |   34: Species S             2.81082211        0.40029271        2.42045327
  |   35: Species S             5.28235020        2.51311898        2.21919259
  |   36: Species S             8.68113551        5.94771858        2.54098744
  |   37: Species S             7.53011453       14.88553855        6.39867214
  |   38: Species S             5.99220880        7.41677676        2.16606593
  |   39: Species S            10.46088103        6.24697458        5.29736530
  |   40: Species S             4.40463387        1.19134955        5.19346788
  |   41: Species S             0.35973208        2.54740924        2.18813694
  |   42: Species S             1.22386962        4.41045705        2.29279271
  |   43: Species S             6.92184842        2.11884978        1.27137185
  |   44: Species S             7.40215281        2.92439847        4.59079509
  |   45: Species S            10.75108878        4.48319620        4.26167926
  |   46: Species S             5.81939820        3.71846424        3.98237822
  |   47: Species S             2.99017857        4.34622938        3.24438340
  |   48: Species S             2.87226762        5.55907950        4.96859211
  |   49: Species S             0.37493782        2.12715623        4.07930534
  |   50: Species S             2.17222243        4.49143022        6.39031822
  |   51: Species S             9.52549715        1.16136347        4.91825205
  |   52: Species S            13.50416545        1.00182609        1.09714716
  |   53: Species S            15.31044788        3.05226665        2.88304985
  |   54: Species S            18.38405681        6.74067380        4.28072212
  |   55: Species S            16.85989596        0.51899055        6.71591672
  |   56: Species S            15.53187174        7.27068334        2.80669270
  |   57: Species S            18.59243654        6.19186083        0.17378161
  |   58: Species S            12.97478214        1.22810474        4.26485568
  |   59: Species S             9.88240862        1.62780020        0.35594242
  |   60: Species S             9.71855317        3.51286376        0.10747287
  |   61: Species S            16.55626680        3.22466696        4.36780169
  |   62: Species S            15.64855850        3.87061972        6.21763445
  |   63: Species S             0.15124026        4.54601680        6.44275720
  |   64: Species S            14.29987645        5.06547010        5.83351328
  |   65: Species S            11.66669177        4.20188256        7.28875247
  |   66: Species S            12.07739085        5.55358435        1.53744466
  |   67: Species S             9.98307148        1.61310167        2.34048227
  |   68: Species S            12.45534196        4.73725605        3.20619222
  |   69: Species S             1.03944883        8.88150983        6.35237772
  |   70: Species S             2.67822136        7.40415226        1.81885288
  |   71: Species S             4.51062803       10.12553488        1.98293194
  |   72: Species S             8.59528934       14.05506770        3.34707026
  |   73: Species S             7.25965538        6.69735922        5.48789616
  |   74: Species S             5.87192876       15.18835075        2.67920716
  |   75: Species S            10.79423081       14.59752680        5.75093462
  |   76: Species S             4.08700916        8.56467499        4.62079215
  |   77: Species S             1.23324102       10.66864578        1.95258745
  |   78: Species S             1.57836102       12.64698100        2.33538413
  |   79: Species S             6.40193635       10.75118544        2.22935257
  |   80: Species S             6.73708305       10.89014198        4.27239951
  |   81: Species S            10.68325320       12.59750348        5.36461888
  |   82: Species S             5.41254051       12.00072116        5.21219941
  |   83: Species S             3.30460401       12.84209766        3.42304997
  |   84: Species S             2.91197953       14.01301110        5.11226414
  |   85: Species S             0.86195218       10.08172792        3.78027310
  |   86: Species S             2.46024010       12.93890637        6.62034670
  |   87: Species S             9.34091024        8.84300945        4.32193601
  |   88: Species S            12.59452653        8.49953171        2.17331082
  |   89: Species S            14.98214444       10.40061974        2.47206477
  |   90: Species S            18.31569439       14.48053205        4.39830924
  |   91: Species S            16.80316143        8.31822512        6.88955538
  |   92: Species S            15.69326066       15.60696886        2.99997037
  |   93: Species S            18.49675884       13.95430304        0.28404330
  |   94: Species S            13.77290075        8.82005914        5.11220240
  |   95: Species S            10.04313247       11.80905725        0.80130934
  |   96: Species S            11.12888807       13.45959837        1.41323326
  |   97: Species S            16.89217828       10.62542102        2.68134173
  |   98: Species S            17.13161896       11.24067007        4.79555831
  |   99: Species S             0.46777741       12.50157136        6.61158665
  |  100: Species S            15.60402968       12.20063367        5.49316671
  |  101: Species S            12.98982260       12.84178446        1.67336914
  |  102: Species S            13.31932814       13.48767091        3.60065556
  |  103: Species S             9.79667291       10.62058849        2.26930002
  |  104: Species S            12.58686864       12.15258766        4.75806959

  Lattice parameters for 3D lattice (in Angstroms) :    19.008437   15.779775    7.295207
  Angle(s) between unit vectors (in degrees)      :    90.000000   90.000000   90.000000

  |

  | The smallest distance between any two atoms is         1.84232456 AA.
  |
  | The first atom of this pair is atom number                     62 .
  | The second atom of this pair is atom number                    64 .
  | Wigner-Seitz cell of the first atom image           0     0     0 .
  | (The Wigner-Seitz cell of the second atom is 0 0 0  by definition.)

  Symmetry information by spglib:
  | Precision set to  0.1E-04
  | Number of Operations  : 1
  | Space group           : 1
  | International         : P1  x
  | Schoenflies           : C1^1

  Quantities derived from the lattice vectors:
  | Reciprocal lattice vector 1:  0.330547  0.000000  0.000000
  | Reciprocal lattice vector 2:  0.000000  0.398180  0.000000
  | Reciprocal lattice vector 3:  0.000000  0.000000  0.861276
  | Unit cell volume                               :   0.218819E+04  A^3

  Range separation radius for Ewald summation (hartree_convergence_parameter):      3.96019395 bohr.

  Fractional coordinates:
                         L1                L2                L3
       atom_frac         0.13802171        0.14799930        0.61975247  Li
       atom_frac         0.08927937        0.50180298        0.56252301  Li
       atom_frac         0.45779067        0.22617647        0.37686625  Li
       atom_frac         0.34926131        0.08585045        0.84278661  Li
       atom_frac         0.41104481        0.05703989        0.40843090  Li
       atom_frac         0.34150440        0.36554101        0.46037889  Li
       atom_frac         0.63982576        0.14761212        0.34466320  Li
       atom_frac         0.61006612        0.52068013        0.58240521  Li
       atom_frac         0.98147815        0.28314093        0.56595576  Li
       atom_frac         0.71126747        0.17886855        0.83837658  Li
       atom_frac         0.90994221        0.06382385        0.60990065  Li
       atom_frac         0.81127334        0.44498608        0.71070695  Li
       atom_frac         0.17599905        0.67953599        0.61183631  Li
       atom_frac         0.06926962        0.99611819        0.57143348  Li
       atom_frac         0.46545500        0.75947207        0.53766835  Li
       atom_frac         0.33560088        0.53829342        0.62895340  Li
       atom_frac         0.42276558        0.55999535        0.29496649  Li
       atom_frac         0.33356726        0.88561893        0.61051321  Li
       atom_frac         0.63540143        0.67772311        0.34704229  Li
       atom_frac         0.57883179        0.99403983        0.45882377  Li
       atom_frac         0.00842320        0.78444523        0.58709174  Li
       atom_frac         0.82584393        0.63544846        0.83484477  Li
       atom_frac         0.93293649        0.54003066        0.43031546  Li
       atom_frac         0.84043276        0.91860884        0.69372970  Li
       atom_frac         0.46359363        0.43888894        0.59476525  P
       atom_frac         0.23825017        0.03948499        0.44841516  P
       atom_frac         0.97267997        0.48680550        0.84128058  P
       atom_frac         0.75594795        0.07037144        0.38691512  P
       atom_frac         0.47016481        0.95670110        0.69894195  P
       atom_frac         0.22509819        0.52003968        0.36332425  P
       atom_frac         0.97314125        0.97772259        0.85802805  P
       atom_frac         0.75020146        0.54546100        0.43662584  P
       atom_frac         0.06099357        0.04490192        0.88985890  S
       atom_frac         0.14787234        0.02536745        0.33178678  S
       atom_frac         0.27789503        0.15926203        0.30419871  S
       atom_frac         0.45669907        0.37692037        0.34830916  S
       atom_frac         0.39614591        0.94333023        0.87710631  S
       atom_frac         0.31523943        0.47001791        0.29691631  S
       atom_frac         0.55032831        0.39588490        0.72614324  S
       atom_frac         0.23171994        0.07549851        0.71190137  S
       atom_frac         0.01892486        0.16143508        0.29994172  S
       atom_frac         0.06438560        0.27950063        0.31428754  S
       atom_frac         0.36414611        0.13427630        0.17427495  S
       atom_frac         0.38941407        0.18532574        0.62928921  S
       atom_frac         0.56559563        0.28411028        0.58417523  S
       atom_frac         0.30614817        0.23564748        0.54588968  S
       atom_frac         0.15730797        0.27543038        0.44472808  S
       atom_frac         0.15110488        0.35229144        0.68107623  S
       atom_frac         0.01972481        0.13480270        0.55917609  S
       atom_frac         0.11427675        0.28463209        0.87596118  S
       atom_frac         0.50111943        0.07359823        0.67417580  S
       atom_frac         0.71043009        0.06348798        0.15039288  S
       atom_frac         0.80545539        0.19342904        0.39519781  S
       atom_frac         0.96715248        0.42717174        0.58678555  S
       atom_frac         0.88696909        0.03288960        0.92059302  S
       atom_frac         0.81710410        0.46075964        0.38473105  S
       atom_frac         0.97811496        0.39239222        0.02382134  S
       atom_frac         0.68258017        0.07782777        0.58461064  S
       atom_frac         0.51989591        0.10315738        0.04879127  S
       atom_frac         0.51127577        0.22261812        0.01473198  S
       atom_frac         0.87099570        0.20435444        0.59872210  S
       atom_frac         0.82324278        0.24528992        0.85229033  S
       atom_frac         0.00795648        0.28809136        0.88314933  S
       atom_frac         0.75229102        0.32101029        0.79963642  S
       atom_frac         0.61376387        0.26628280        0.99911523  S
       atom_frac         0.63537002        0.35194319        0.21074723  S
       atom_frac         0.52519161        0.10222590        0.32082465  S
       atom_frac         0.65525335        0.30021062        0.43949297  S
       atom_frac         0.05468355        0.56284136        0.87076044  S
       atom_frac         0.14089645        0.46921787        0.24932162  S
       atom_frac         0.23729610        0.64167804        0.27181298  S
       atom_frac         0.45218286        0.89070141        0.45880401  S
       atom_frac         0.38191754        0.42442679        0.75226051  S
       atom_frac         0.30891171        0.96252012        0.36725581  S
       atom_frac         0.56786525        0.92507827        0.78831685  S
       atom_frac         0.21501027        0.54276282        0.63340110  S
       atom_frac         0.06487861        0.67609620        0.26765347  S
       atom_frac         0.08303476        0.80146778        0.32012582  S
       atom_frac         0.33679447        0.68132693        0.30559140  S
       atom_frac         0.35442594        0.69013292        0.58564472  S
       atom_frac         0.56202692        0.79833227        0.73536211  S
       atom_frac         0.28474411        0.76051283        0.71446902  S
       atom_frac         0.17384933        0.81383276        0.46921903  S
       atom_frac         0.15319405        0.88803619        0.70077026  S
       atom_frac         0.04534577        0.63890189        0.51818585  S
       atom_frac         0.12942885        0.81996775        0.90749264  S
       atom_frac         0.49140865        0.56040150        0.59243500  S
       atom_frac         0.66257560        0.53863454        0.29790941  S
       atom_frac         0.78818393        0.65911078        0.33886150  S
       atom_frac         0.96355605        0.91766405        0.60290396  S
       atom_frac         0.88398439        0.52714473        0.94439477  S
       atom_frac         0.82559448        0.98904890        0.41122484  S
       atom_frac         0.97308153        0.88431573        0.03893561  S
       atom_frac         0.72456777        0.55894709        0.70076180  S
       atom_frac         0.52835131        0.74836665        0.10984052  S
       atom_frac         0.58547097        0.85296518        0.19372079  S
       atom_frac         0.88866740        0.67335695        0.36754841  S
       atom_frac         0.90126395        0.71234667        0.65735739  S
       atom_frac         0.02460894        0.79225284        0.90629184  S
       atom_frac         0.82090020        0.77318174        0.75298297  S
       atom_frac         0.68337142        0.81381291        0.22937925  S
       atom_frac         0.70070612        0.85474420        0.49356455  S
       atom_frac         0.51538551        0.67305070        0.31106725  S
       atom_frac         0.66217273        0.77013695        0.65221858  S

  Number of empty states per atom not set in control.in - providing a guess from actual geometry.
  | Total number of empty states used during s.c.f. cycle:      276
  If you use a very high smearing, use empty_states (per atom!) in control.in to increase this value.

  Structure-dependent array size parameters: 
  | Maximum number of distinct radial functions  :       43
  | Maximum number of basis functions            :     3840
  | Number of Kohn-Sham states (occupied + empty):      948
------------------------------------------------------------

------------------------------------------------------------
          Preparing all fixed parts of the calculation.
------------------------------------------------------------
  Determining machine precision:
    2.225073858507201E-308
  Setting up grids for atomic and cluster calculations.

  Creating wave function, potential, and density for free atoms.

  Species: Li

  List of occupied orbitals and eigenvalues:
    n    l              occ      energy [Ha]    energy [eV]
    1    0           2.0000        -1.901473       -51.7417
    2    0           1.0000        -0.103132        -2.8064


  Species: P

  List of occupied orbitals and eigenvalues:
    n    l              occ      energy [Ha]    energy [eV]
    1    0           2.0000       -76.356288     -2077.7603
    2    0           2.0000        -6.358286      -173.0178
    3    0           2.0000        -0.509419       -13.8620
    2    1           6.0000        -4.573976      -124.4642
    3    1           3.0000        -0.201560        -5.4847


  Species: S

  List of occupied orbitals and eigenvalues:
    n    l              occ      energy [Ha]    energy [eV]
    1    0           2.0000       -88.108280     -2397.5483
    2    0           2.0000        -7.732485      -210.4116
    3    0           2.0000        -0.629532       -17.1304
    2    1           6.0000        -5.750324      -156.4743
    3    1           4.0000        -0.257562        -7.0086


  Species: Cl

  List of occupied orbitals and eigenvalues:
    n    l              occ      energy [Ha]    energy [eV]
    1    0           2.0000      -100.710795     -2740.4802
    2    0           2.0000        -9.222997      -250.9705
    3    0           2.0000        -0.754245       -20.5241
    2    1           6.0000        -7.039872      -191.5647
    3    1           5.0000        -0.316221        -8.6048

  Creating fixed part of basis set: Ionic, confined, hydrogenic.
 
  Li                   hydrogenic:
 
  List of hydrogenic basis orbitals: 
    n    l      effective z      eigenvalue [eV]  inner max. [A]     outer max. [A]     outer radius [A]   
    2    1         1.600000        -8.7048           1.319365           1.319365           6.386418
    2    0         2.000000       -13.6052           0.203259           1.385485           6.232164
    3    2         2.600000       -10.2084           1.835332           1.835332           6.386418
    3    1         4.600000       -31.9883           0.343834           1.385485           5.381805
    2    1         1.800000       -11.0199           1.181903           1.181903           6.386418
    3    0         6.200000       -58.1113           0.062858           1.111823           4.371906
    4    2         4.700000       -18.7772           0.761113           2.401695           6.386418
    4    3         4.100000       -14.2833           2.073992           2.073992           6.386418
 
 
  P                    ion:

  List of free ionic orbitals and eigenvalues:
    n    l      energy [Ha]    energy [eV]
    1    0       -77.297133     -2103.3620
    2    0        -7.273914      -197.9333
    3    0        -1.267536       -34.4914
    2    1        -5.491316      -149.4263
    3    1        -0.913470       -24.8568


  List of ionic basis orbitals and eigenvalues:
    n    l      energy [Ha]    energy [eV]    outer radius [A]
    3    2        -0.458060       -12.4644       5.404780
    3    1        -0.913461       -24.8565       4.724723
    3    0        -1.267529       -34.4912       4.232463

 
  P                    hydrogenic:
 
  List of hydrogenic basis orbitals: 
    n    l      effective z      eigenvalue [eV]  inner max. [A]     outer max. [A]     outer radius [A]   
    4    3         6.200000       -32.6870           1.357793           1.357793           5.339109
    5    4         8.600000       -40.2502           1.534356           1.534356           5.404780
    4    2         6.200000       -32.6848           0.577014           1.820771           5.404780
 
 
  S                    ion:

  List of free ionic orbitals and eigenvalues:
    n    l      energy [Ha]    energy [eV]
    1    0       -89.127201     -2425.2745
    2    0        -8.724378      -237.4024
    3    0        -1.464668       -39.8556
    2    1        -6.744348      -183.5230
    3    1        -1.048520       -28.5317


  List of ionic basis orbitals and eigenvalues:
    n    l      energy [Ha]    energy [eV]    outer radius [A]
    3    2        -0.496514       -13.5108       5.386362
    3    0        -1.464662       -39.8555       3.967934

 
  S                    hydrogenic:
 
  List of hydrogenic basis orbitals: 
    n    l      effective z      eigenvalue [eV]  inner max. [A]     outer max. [A]     outer radius [A]   
    2    1         1.800000       -11.0118           1.168531           1.168531           5.452614
    4    3         7.000000       -41.6672           1.212182           1.212182           5.066981
    4    2         6.200000       -32.6848           0.582121           1.814567           5.386362
    5    4        10.800000       -63.4785           1.227092           1.227092           4.766538
 
 
  Cl                   ion:

  List of free ionic orbitals and eigenvalues:
    n    l      energy [Ha]    energy [eV]
    1    0      -101.807232     -2770.3157
    2    0       -10.290876      -280.0290
    3    0        -1.664625       -45.2967
    2    1        -8.110237      -220.6908
    3    1        -1.183915       -32.2160


  List of ionic basis orbitals and eigenvalues:
    n    l      energy [Ha]    energy [eV]    outer radius [A]
    3    2        -0.529392       -14.4055       5.389057
    3    0        -1.664620       -45.2966       3.780461

 
  Cl                   hydrogenic:
 
  List of hydrogenic basis orbitals: 
    n    l      effective z      eigenvalue [eV]  inner max. [A]     outer max. [A]     outer radius [A]   
    2    1         1.900000       -12.2741           1.113321           1.113321           5.389057
    4    3         7.400000       -46.5653           1.140877           1.140877           4.886961
    5    4        10.400000       -58.8635           1.273568           1.273568           4.886961
    3    2         3.300000       -16.4532           1.439178           1.439178           5.455343
 

  Adding cutoff potential to free-atom effective potential.
  Creating atomic-like basis functions for current effective potential.

  Species Li                  :

  List of atomic basis orbitals and eigenvalues:
    n    l      energy [Ha]    energy [eV]    outer radius [A]
    1    0        -1.901473       -51.7417       4.318785
    2    0        -0.103132        -2.8064       6.464971


  Species P                   :

  List of atomic basis orbitals and eigenvalues:
    n    l      energy [Ha]    energy [eV]    outer radius [A]
    1    0       -76.356288     -2077.7603       0.736837
    2    0        -6.358286      -173.0178       2.532824
    3    0        -0.509419       -13.8620       5.274236
    2    1        -4.573976      -124.4642       2.862183
    3    1        -0.201560        -5.4847       5.404780


  Species S                   :

  List of atomic basis orbitals and eigenvalues:
    n    l      energy [Ha]    energy [eV]    outer radius [A]
    1    0       -88.108280     -2397.5483       0.682391
    2    0        -7.732485      -210.4116       2.317169
    3    0        -0.629532       -17.1304       5.256262
    2    1        -5.750324      -156.4743       2.555240
    3    1        -0.257562        -7.0086       5.386362


  Species Cl                  :

  List of atomic basis orbitals and eigenvalues:
    n    l      energy [Ha]    energy [eV]    outer radius [A]
    1    0      -100.710795     -2740.4802       0.642251
    2    0        -9.222997      -250.9705       2.128190
    3    0        -0.754245       -20.5241       5.194994
    2    1        -7.039872      -191.5647       2.346844
    3    1        -0.316221        -8.6048       5.323577

  Assembling full basis from fixed parts.
  | Species Li :   atomic orbital   1 s accepted.
  | Species Li :    hydro orbital   3 s accepted.
  | Species Li :    hydro orbital   2 s accepted.
  | Species Li :   atomic orbital   2 s accepted.
  | Species Li :    hydro orbital   3 p accepted.
  | Species Li :    hydro orbital   2 p accepted.
  | Species Li :    hydro orbital   2 p accepted.
  | Species Li :    hydro orbital   3 d accepted.
  | Species Li :    hydro orbital   4 d accepted.
  | Species Li :    hydro orbital   4 f accepted.
  | Species P :   atomic orbital   1 s accepted.
  | Species P :   atomic orbital   2 s accepted.
  | Species P :    ionic orbital   3 s accepted.
  | Species P :   atomic orbital   3 s accepted.
  | Species P :   atomic orbital   2 p accepted.
  | Species P :    ionic orbital   3 p accepted.
  | Species P :   atomic orbital   3 p accepted.
  | Species P :    ionic orbital   3 d accepted.
  | Species P :    hydro orbital   4 d accepted.
  | Species P :    hydro orbital   4 f accepted.
  | Species P :    hydro orbital   5 g accepted.
  | Species S :   atomic orbital   1 s accepted.
  | Species S :   atomic orbital   2 s accepted.
  | Species S :    ionic orbital   3 s accepted.
  | Species S :   atomic orbital   3 s accepted.
  | Species S :   atomic orbital   2 p accepted.
  | Species S :   atomic orbital   3 p accepted.
  | Species S :    hydro orbital   2 p accepted.
  | Species S :    ionic orbital   3 d accepted.
  | Species S :    hydro orbital   4 d accepted.
  | Species S :    hydro orbital   4 f accepted.
  | Species S :    hydro orbital   5 g accepted.
  | Species Cl :   atomic orbital   1 s accepted.
  | Species Cl :   atomic orbital   2 s accepted.
  | Species Cl :    ionic orbital   3 s accepted.
  | Species Cl :   atomic orbital   3 s accepted.
  | Species Cl :   atomic orbital   2 p accepted.
  | Species Cl :   atomic orbital   3 p accepted.
  | Species Cl :    hydro orbital   2 p accepted.
  | Species Cl :    ionic orbital   3 d accepted.
  | Species Cl :    hydro orbital   3 d accepted.
  | Species Cl :    hydro orbital   4 f accepted.
  | Species Cl :    hydro orbital   5 g accepted.
 
  Basis size parameters after reduction:
  | Total number of radial functions:       43
  | Total number of basis functions :     3840
 
  Per-task memory consumption for arrays in subroutine allocate_ext:
  |          11.342760MB.
  Testing on-site integration grid accuracy.
  |  Species  Function  <phi|h_atom|phi> (log., in eV)  <phi|h_atom|phi> (rad., in eV)
           1        1                -51.7417001117                -51.7417000312
           1        2                 33.5927188637                 33.5926505054
           1        3                 69.1469416012                 69.1473382425
           1        4                 48.8336153902                 48.8810182289 ***
           1        5                 17.1749490570                 17.1749098864
           1        6                 32.1201183828                 32.1217831653
           1        7                  6.0166019876                  6.0249480535
           1        8                  4.9175332206                  4.9194842525
           1        9                 28.8010599263                 28.8011051086
           1       10                  9.9331480983                  9.9353515081
           2       11              -2077.7602992527              -2077.7602630746
           2       12               -173.0177635265               -173.0177629291
           2       13                -13.5620523038                -13.5620521963
           2       14                  6.3015351439                  6.3015396353
           2       15               -124.4642131574               -124.4642129967
           2       16                 -4.8468074573                 -4.8468065719
           2       17                  5.8113348591                  5.8108493787
           2       18                  5.1218113540                  5.1217878152
           2       19                 22.1386653152                 22.1386624883
           2       20                 19.3047268689                 19.3047231214
           2       21                 30.3235883931                 30.3235836780
           3       22              -2397.5482725833              -2397.5482291499
           3       23               -210.4116306505               -210.4116300246
           3       24                -16.8591546483                -16.8591544436
           3       25                  7.5848976656                  7.5849001027
           3       26               -156.4742745766               -156.4742744285
           3       27                 -7.0089268331                 -7.0089287934
           3       28                  6.8790437028                  6.8789536772
           3       29                  6.0023049431                  6.0023019693
           3       30                 19.5634804122                 19.5634829634
           3       31                 24.6809503130                 24.6809503093
           3       32                 47.5107032033                 47.5107040524
           4       33              -2740.4801671239              -2740.4801157382
           4       34               -250.9705040601               -250.9705032686
           4       35                -20.2716828479                -20.2716826054
           4       36                  9.0161300765                  9.0161279813
           4       37               -191.5646602865               -191.5646600866
           4       38                 -8.6049187754                 -8.6049181478
           4       39                  7.6458046208                  7.6458222053
           4       40                  6.9765726558                  6.9765744583
           4       41                 16.6546700656                 16.6546956458
           4       42                 28.0343243807                 28.0343233726
           4       43                 45.0370063060                 45.0370052039
 * Note: Onsite integrals marked "***" above are less accurate than
 * onsite_accuracy_threshold =    0.03000 eV. Usually, this is harmless.
 * When in doubt, tighten the "radial" and/or "radial_multiplier" flags to check.

  Preparing densities etc. for the partition functions (integrals / Hartree potential).

  Preparations completed.
  max(cpu_time)          :      0.494 s.
  Wall clock time (cpu1) :      0.495 s.
------------------------------------------------------------

------------------------------------------------------------
          Begin self-consistency loop: Initialization.

          Date     :  20220704, Time     :  055700.736
------------------------------------------------------------

  Initializing index lists of integration centers etc. from given atomic structure:
  Mapping all atomic coordinates to central unit cell.

  Initializing the k-points
          Using symmetry for reducing the k-points
  | k-points reduced from:        2 to        2
  | Number of k-points                             :         2
  The eigenvectors in the calculations are REAL.
  | Number of basis functions in the Hamiltonian integrals :     20662
  | Number of basis functions in a single unit cell        :      3840
  | Number of centers in hartree potential         :      2932
  | Number of centers in hartree multipole         :      2027
  | Number of centers in electron density summation:      1659
  | Number of centers in basis integrals           :      1743
  | Number of centers in integrals                 :       717
  | Number of centers in hamiltonian               :      1996
  | Consuming          1 KiB for k_phase.
  | Number of super-cells (origin) [n_cells]                     :         175
  | Number of super-cells (after PM_index) [n_cells]             :          46
  | Number of super-cells in hamiltonian [n_cells_in_hamiltonian]:          46
  | Size of matrix packed + index [n_hamiltonian_matrix_size] :    17117802
  Using simple linear distribution as default method for k-point parallelism.
  * Using 20 tasks for Scalapack Eigenvalue solver.
  Detailed listing of tasks and assigned k-points:
   Task     0 k-point     1 on node108
   Task     1 k-point     1 on node108
   Task     2 k-point     1 on node108
   Task     3 k-point     1 on node108
   Task     4 k-point     1 on node108
   Task     5 k-point     1 on node108
   Task     6 k-point     1 on node108
   Task     7 k-point     1 on node108
   Task     8 k-point     1 on node108
   Task     9 k-point     1 on node108
   Task    10 k-point     2 on node108
   Task    11 k-point     2 on node108
   Task    12 k-point     2 on node108
   Task    13 k-point     2 on node108
   Task    14 k-point     2 on node108
   Task    15 k-point     2 on node108
   Task    16 k-point     2 on node108
   Task    17 k-point     2 on node108
   Task    18 k-point     2 on node108
   Task    19 k-point     2 on node108
  K-point:     1 Tasks:    10 split into      5 X      2 BLACS grid
  Calculating block size based on n_basis =         3840 max_nprow =            5 max_npcol =            2
  ScaLAPACK block size set to:           16
  Allocating       11.796 MB for ovlp
  Allocating       11.796 MB for ham
  Allocating       11.796 MB for eigenvec
  Required Scalapack workspace - INTEGER:            1 REAL:             1
  Partitioning the integration grid into batches with parallel hashing+maxmin method.
  | Number of batches:    27786
  | Maximal batch size:     135
  | Minimal batch size:      52
  | Average batch size:      83.930
  | Standard deviation of batch sizes:      23.121

  Integration load balanced across    20 MPI tasks.
  Work distribution over tasks is as follows:
  Task     0 has     116609 integration points.
  Task     1 has     116635 integration points.
  Task     2 has     116618 integration points.
  Task     3 has     116657 integration points.
  Task     4 has     116553 integration points.
  Task     5 has     116573 integration points.
  Task     6 has     116585 integration points.
  Task     7 has     116621 integration points.
  Task     8 has     116608 integration points.
  Task     9 has     116623 integration points.
  Task    10 has     116605 integration points.
  Task    11 has     116569 integration points.
  Task    12 has     116606 integration points.
  Task    13 has     116553 integration points.
  Task    14 has     116585 integration points.
  Task    15 has     116622 integration points.
  Task    16 has     116550 integration points.
  Task    17 has     116634 integration points.
  Task    18 has     116637 integration points.
  Task    19 has     116637 integration points.
  Initializing partition tables, free-atom densities, potentials, etc. across the integration grid (initialize_grid_storage).
  | initialize_grid_storage: Actual outermost partition radius vs. multipole_radius_free
  | (-- VB: in principle, multipole_radius_free should be larger, hence this output)
  | Species        1: Confinement radius =              7.000000000000000 AA, multipole_radius_free =              7.042572113910259 AA.
  | Species        1: outer_partition_radius set to              7.042572113910259 AA .
  | Species        2: Confinement radius =              6.000000000000000 AA, multipole_radius_free =              6.033387558927091 AA.
  | Species        2: outer_partition_radius set to              6.033387558927091 AA .
  | Species        3: Confinement radius =              6.000000000000000 AA, multipole_radius_free =              6.012827091137924 AA.
  | Species        3: outer_partition_radius set to              6.012827091137924 AA .
  | Species        4: Confinement radius =              6.000000000000000 AA, multipole_radius_free =              6.015836048499353 AA.
  | Species        4: outer_partition_radius set to              6.015836048499353 AA .
  | Original list of interatomic distances with        1743 x       1743 entries is created.
  | Net number of integration points:  2332080
  | of which are non-zero points    :  1868797
  | Numerical average free-atom electrostatic potential    :    -10.79220404 eV
  Renormalizing the initial density to the exact electron count on the 3D integration grid.
  | Initial density: Formal number of electrons (from input files) :    1344.0000000000
  | Integrated number of electrons on 3D grid     :    1344.0000780473
[...]
  | Total energy evaluation                    :        0.003 s           0.006 s

  Partial memory accounting:
  | Current value for overall tracked memory usage on task 0  :         247.341 MB
  | Peak value for overall tracked memory usage on task 0     :         521.225 MB after allocating temp_ham_ovlp
  | Largest tracked array allocation on task 0 so far         :         136.942 MB  when allocating overlap_matrix
  Note:  These values currently only include a subset of arrays which are explicitly tracked.
  The "true" memory usage will be greater.
------------------------------------------------------------
  |------------------------------------------
  | Final ELSI Output
  |------------------------------------------
  | Number of basis functions :         3840
  | Number of electrons       :       1344.0
  | Number of spins           :            1
  | Number of k-points        :            2
  | Number of states          :          948
  | Solver                    :         ELPA
  | Parallel mode             :   MULTI_PROC
  | Matrix format             :  BLACS_DENSE
  | Matrix sparsity           :        0.145
  |------------------------------------------
  | ELSI Project (c)  elsi-interchange.org
  |------------------------------------------
  Removing unitary transformations (pure translations, rotations) from forces on atoms.
  Atomic forces before filtering:
  | Net force on center of mass :   0.548763E-03 -0.139560E-02  0.366297E-02 eV/A
  Atomic forces after filtering:
  | Net force on center of mass :   0.297715E-14  0.107044E-14  0.107044E-14 eV/A

  Energy and forces in a compact form:
  | Total energy uncorrected      :         -0.859129440227421E+06 eV
  | Total energy corrected        :         -0.859129440227421E+06 eV  <-- do not rely on this value for anything but (periodic) metals
  | Electronic free energy        :         -0.859129440227421E+06 eV
  Total atomic forces (unitary forces cleaned) [eV/Ang]:
  |   1         -0.262552922916123E+00          0.252968038210460E-01          0.113777508581517E+00
  |   2          0.854785334671782E-01         -0.224430224403483E+00          0.574404698227560E-01
  |   3          0.413092848613419E-01          0.152266288551438E+00         -0.111287475774956E+00
  |   4         -0.119743132761977E+00         -0.857179351582758E-01          0.222558998484047E+00
  |   5          0.943063817836436E-01         -0.396938556655352E+00          0.212854076620506E+00
  |   6          0.214121363333269E+00         -0.473428840161473E+00          0.523230008970526E+00
  |   7         -0.284479503509113E+00          0.422186329306456E+00         -0.494926827379898E+00
  |   8          0.132315169629948E+00         -0.820853926741359E-01          0.170178316977402E+00
  |   9         -0.168358292436808E+00         -0.809808836845651E-01         -0.108746235102968E+00
  |  10         -0.368928749123944E-01         -0.278043298444410E+00          0.935844185780543E-01
  |  11         -0.694297148403808E-01         -0.547248331908469E-01         -0.394172665116460E+00
  |  12          0.180062864261795E+00          0.375433573889275E-01          0.236511593966366E+00
  |  13         -0.609380960890846E-01          0.289613601600706E-01          0.137352882747938E+00
  |  14          0.321579468935806E-01         -0.330495074866212E-01          0.598670733837536E-01
  |  15          0.751843504008348E-01         -0.612707803836769E+00          0.150817343048965E+00
  |  16         -0.120562953986597E+00          0.445222059532583E+00         -0.110678211714790E+00
  |  17          0.930311089001567E-01         -0.931330714218205E-01         -0.174172568970464E+00
  |  18          0.158229580845465E+00         -0.120742060293220E+00          0.532515147187067E+00
  |  19          0.977596718934820E-01          0.108949379882694E+00          0.365462723465655E-01
  |  20          0.431275728928369E+00         -0.465721477275818E+00          0.166538441757890E+00
  |  21         -0.842718061183294E-02         -0.171444554077078E+00         -0.767796324349330E-01
  |  22         -0.542747209875187E+00          0.482089874654265E-01          0.549117947696705E-02
  |  23          0.277713397666198E-01          0.951090076658565E-01         -0.306403076477979E+00
  |  24         -0.192044804115834E-01          0.132497337725832E+00          0.244500926841575E+00
  |  25         -0.438734770499762E+00         -0.303309980852542E+00         -0.136903795424215E+01
  |  26         -0.321226919336546E+00          0.972237905446492E+00          0.852287147866338E+00
  |  27          0.116998596491158E+01          0.927736604959925E+00         -0.181992605519075E+01
  |  28         -0.128489206121703E+01          0.216739091125235E+01          0.523097139932226E+00
  |  29         -0.436694757390559E+00         -0.844594132109738E+00         -0.126634153634170E+01
  |  30         -0.134897827333082E+01         -0.667315116330322E+00          0.209950377831604E+00
  |  31          0.173497033579237E+01          0.559429646995200E+00         -0.169320392272428E+01
  |  32         -0.566344773231336E+00          0.410396428617081E+00          0.789296690975770E+00
  |  33          0.310584442963873E+00         -0.156216204941394E+00          0.319436330198005E+00
  |  34         -0.132038395926252E+01          0.123817631577752E+00         -0.929391059461051E+00
  |  35         -0.166785561021216E+01          0.128682615192955E+01         -0.175501226094265E+00
  |  36          0.988256617174564E-01          0.876148584572817E+00         -0.300351251328567E+00
  |  37         -0.145128885132540E+01         -0.544589322928492E+00          0.127983847693519E+01
  |  38          0.141083219877390E+01         -0.196703050263508E+00         -0.113754458650205E+01
  |  39          0.157815424170774E+01         -0.925653191275103E+00          0.806516966558061E+00
  |  40          0.413367257262186E+00         -0.456408033410785E+00          0.798005960687721E+00
  |  41         -0.200050535653489E+00          0.655198812186362E+00         -0.249350987015781E+01
  |  42         -0.936980943362740E+00          0.118328678039570E+01         -0.128895674432763E+01
  |  43          0.965063043949805E+00          0.101245521508586E+00         -0.932781106845657E+00
  |  44          0.304604699243009E+01         -0.134335496568931E+01          0.134218301536883E+01
  |  45         -0.450476312694663E+00         -0.819798812509034E+00          0.109082569767307E+01
  |  46         -0.337429766226302E+01          0.157125164449304E+01         -0.124440533456608E+01
  |  47          0.125141029526335E+01         -0.380043661911281E+00          0.216814752516650E+00
  |  48          0.736927145769322E+00          0.146090263418485E+01         -0.182295284979147E+01
  |  49         -0.481227311607928E-03         -0.959145763286138E+00          0.245086737890603E+01
  |  50          0.556170698269561E+00         -0.181407207415324E+01          0.221618192819769E+01
  |  51          0.636167989085187E+00          0.149672036037935E+01         -0.340235072328046E-02
  |  52         -0.998728382347313E+00          0.343249620726471E+00         -0.190629680166385E+01
  |  53         -0.975486647375933E+00          0.911236350338115E+00         -0.180289960814820E+01
  |  54          0.319458586327120E+00          0.335088044359466E+00          0.329462432347674E+00
  |  55         -0.241119221339309E+01          0.128385935597255E+01          0.557973090590973E+00
  |  56          0.200899532954745E+01         -0.224956196939578E+01         -0.548300011106338E+00
  |  57         -0.959196909189214E-01         -0.189664419862577E+01          0.184982294309747E+01
  |  58         -0.473191147116858E+00         -0.171280373539327E+00          0.150650122544943E+01
  |  59          0.295432718418131E+00         -0.235368983330464E+01         -0.972167039268152E+00
  |  60         -0.106036961533885E+01          0.286101490054513E+01         -0.100134922447955E+01
  |  61          0.847611651389837E+00          0.675904699387131E-01          0.694385500432956E+00
  |  62          0.342376708714230E+01         -0.325557836764939E+01          0.158205593516596E+01
  |  63         -0.827956845004610E+00         -0.597219839121070E+00          0.307863618781392E+00
  |  64         -0.350131410417941E+01          0.330260184746480E+01         -0.919355695276138E+00
  |  65          0.647384096673301E+00         -0.218302697517649E-01          0.161699240102908E+00
  |  66         -0.550022834918998E+00          0.165649687364733E+01         -0.307086825911825E+01
  |  67          0.181000438631345E+00         -0.302951101649360E+00          0.125888302713145E+01
  |  68          0.149837157836772E+01         -0.124892025353406E+01          0.206183839098125E+01
  |  69          0.256923983371685E-01         -0.121677468249022E+00          0.143738327893289E+00
  |  70         -0.191512961421309E+00          0.176473200110760E+00         -0.685568904368264E-01
  |  71         -0.117114037913322E+01          0.206848760388438E+01         -0.153775862243897E+01
  |  72          0.180752881299537E+00          0.107992251197171E+01         -0.167014149884006E-01
  |  73         -0.124685537213762E+01         -0.102342477518555E+01          0.134153212588477E+01
  |  74          0.132579679809705E+01         -0.116580067945582E+01         -0.911841854684322E+00
  |  75          0.123490635168116E+01         -0.139938728012133E+00          0.251204547663204E+00
  |  76         -0.927083418247015E-01         -0.551996130497216E+00          0.127539917006719E+01
  |  77          0.537217592953949E+00          0.592588873911185E+00         -0.213469062937891E+01
  |  78         -0.817768015514767E+00          0.121351322301184E+01         -0.870611921790290E+00
  |  79          0.511027732178008E+00          0.436921487831026E+00         -0.840367941105248E+00
  |  80          0.108392399759238E+01         -0.804579723354261E+00          0.688501572739653E+00
  |  81         -0.484725130596159E+00         -0.842306166579614E+00          0.143215957937631E+00
  |  82         -0.530577137564225E+00          0.339631757180508E+00          0.809707684857481E+00
  |  83          0.813227211906025E+00         -0.361898208828314E+00         -0.276780549490393E+00
  |  84          0.310723467378826E+00          0.170577760034406E+01         -0.209764655984726E+01
  |  85         -0.489760117253811E+00         -0.103063132793026E+01          0.213761747324601E+01
  |  86          0.548988858313395E+00         -0.170265741454959E+01          0.237603084208855E+01
  |  87         -0.141390487476358E+00          0.930004506984815E+00          0.116902123344442E+00
  |  88         -0.145910105577367E+01          0.450254294351147E-01         -0.135457408771828E+01
  |  89         -0.148606052355985E+01          0.165614253592799E+01         -0.122612024400561E+01
  |  90          0.947981643608488E-01          0.717574651959842E+00         -0.151348652224108E+00
  |  91         -0.150341879714471E+01          0.287559982140559E+00          0.851457239514285E+00
  |  92          0.333421756444289E+01         -0.297890272785430E+01          0.488215889129416E+00
  |  93         -0.626590189216341E+00         -0.177468946902518E+01          0.222077146025169E+01
  |  94         -0.361633942047814E+00          0.511313926620318E-01          0.132382376061034E+01
  |  95          0.498703224345137E+00          0.205511757793364E+01         -0.260701655288403E+01
  |  96         -0.171201568045967E+01          0.964687928714667E+00         -0.477807676979490E+00
  |  97          0.134540306041735E+01          0.471760115869047E+00         -0.156623074926104E+00
  |  98          0.177041625203139E+01         -0.772432271010165E+00         -0.376303368068266E+00
  |  99         -0.143742169408425E+00         -0.101938336973527E+01          0.130227407014469E+00
  | 100         -0.139983728802155E+01          0.966125167125821E+00          0.701948483404459E+00
  | 101          0.163174160166188E+01         -0.462832132466536E+00         -0.802635478378339E+00
  | 102          0.896258130535074E+00          0.181799666906479E+01         -0.106697230493616E+01
  | 103         -0.773850655859756E+00         -0.201128104547643E+01          0.256393223884524E+01
  | 104          0.815663775593071E-01         -0.217994961585017E+01          0.171628877359799E+01

  ------------------------------------ 
  Start decomposition of the XC Energy 
  ------------------------------------ 
  X and C from original XC functional choice 
  Hartree-Fock Energy :          0.000000000 Ha              0.000000000 eV
  X Energy            :      -2020.872995213 Ha         -54990.752098413 eV
  C Energy            :        -52.486131118 Ha          -1428.220294781 eV
  Total XC Energy     :      -2073.359126332 Ha         -56418.972393193 eV
  ------------------------------------ 
  LDA X and C from self-consistent density 
  X Energy LDA        :      -1873.330038469 Ha         -50975.903972173 eV
  C Energy LDA        :       -103.429718133 Ha          -2814.465828836 eV
  ------------------------------------ 
  End decomposition of the XC Energy 
  ------------------------------------ 

------------------------------------------------------------

------------------------------------------------------------------------------
  Final output of selected total energy values:

  The following output summarizes some interesting total energy values
  at the end of a run (AFTER all relaxation, molecular dynamics, etc.).

  | Total energy of the DFT / Hartree-Fock s.c.f. calculation      :        -859129.440227421 eV
  | Final zero-broadening corrected energy (caution - metals only) :        -859129.440227421 eV
  | For reference only, the value of 1 Hartree used in FHI-aims is :             27.211384500 eV

  Before relying on these values, please be sure to understand exactly which
  total energy value is referred to by a given number. Different objects may
  all carry the same name 'total energy'. Definitions:

  Total energy of the DFT / Hartree-Fock s.c.f. calculation:
  | Note that this energy does not include ANY quantities calculated after the
  | s.c.f. cycle, in particular not ANY RPA, MP2, etc. many-body perturbation terms.

  Final zero-broadening corrected energy:
  | For metallic systems only, a broadening of the occupation numbers at the Fermi
  | level can be extrapolated back to zero broadening by an electron-gas inspired
  | formula. For all systems that are not real metals, this value can be
  | meaningless and should be avoided.

------------------------------------------------------------------------------
  Methods described in the following list of references were used in this FHI-aims run.
  If you publish the results, please make sure to cite these reference if they apply.
  FHI-aims is an academic code, and for our developers (often, Ph.D. students
  and postdocs), scientific credit in the community is essential.
  Thank you for helping us!

  For any use of FHI-aims, please cite:

    Volker Blum, Ralf Gehrke, Felix Hanke, Paula Havu, Ville Havu,
    Xinguo Ren, Karsten Reuter, and Matthias Scheffler
    'Ab initio molecular simulations with numeric atom-centered orbitals'
    Computer Physics Communications 180, 2175-2196 (2009)
    http://dx.doi.org/10.1016/j.cpc.2009.06.022


  The provided symmetry information was generated with SPGlib:

    Atsushi Togo, Yusuke Seto, Dimitar Pashov
    SPGlib 1.7.3 obtained from http://spglib.sourceforge.net
    Copyright (C) 2008 Atsushi Togo


  The scalable eigensolver library ELPA was used in your run.
  ELPA is essential especially for large systems on hundreds or thousands of CPUs.
  For ELPA, please cite:

    Andreas Marek, Volker Blum, Rainer Johanni, Ville Havu, Bruno Lang,
    Thomas Auckenthaler, Alexander Heinecke, Hans-Joachim Bungartz, and Hermann Lederer,
    'The ELPA Library - Scalable Parallel Eigenvalue Solutions
    for Electronic Structure Theory and Computational Science'
    The Journal of Physics: Condensed Matter 26, 213201 (2014).
    http://dx.doi.org/10.1088/0953-8984/26/21/213201


  The ELSI infrastructure was used in your run to solve the Kohn-Sham electronic structure.
  Please check out http://elsi-interchange.org to learn more.
  If scalability is important for your project, please acknowledge ELSI by citing:

    V. W-z. Yu, F. Corsetti, A. Garcia, W. P. Huhn, M. Jacquelin, W. Jia,
    B. Lange, L. Lin, J. Lu, W. Mi, A. Seifitokaldani, A. Vazquez-Mayagoitia,
    C. Yang, H. Yang, and V. Blum
    'ELSI: A unified software interface for Kohn-Sham electronic structure solvers'
    Computer Physics Communications 222, 267-285 (2018).
    http://dx.doi.org/10.1016/j.cpc.2017.09.007


  For the real-space grid partitioning and parallelization used in this calculation, please cite:

    Ville Havu, Volker Blum, Paula Havu, and Matthias Scheffler,
    'Efficient O(N) integration for all-electron electronic structure calculation'
    'using numerically tabulated basis functions'
    Journal of Computational Physics 228, 8367-8379 (2009).
    http://dx.doi.org/10.1016/j.jcp.2009.08.008

  Of course, there are many other important community references, e.g., those cited in the
  above references. Our list is limited to references that describe implementations in the
  FHI-aims code. The reason is purely practical (length of this list) - please credit others as well.

------------------------------------------------------------
          Leaving FHI-aims.
          Date     :  20220704, Time     :  070047.806

          Computational steps:
          | Number of self-consistency cycles          :           22
          | Number of SCF (re)initializations          :            1

          Detailed time accounting                     :  max(cpu_time)    wall_clock(cpu1)
          | Total time                                 :     3827.103 s        3827.878 s
          | Preparation time                           :        0.494 s           0.495 s
          | Boundary condition initalization           :        0.911 s           0.911 s
          | Grid partitioning                          :        4.126 s           4.126 s
          | Preloading free-atom quantities on grid    :        0.035 s           0.042 s
          | Free-atom superposition energy             :        1.811 s           1.810 s
          | Total time for integrations                :      830.104 s         830.133 s
          | Total time for solution of K.-S. equations :       57.313 s          57.326 s
          | Total time for density & force components  :     2247.119 s        2247.167 s
          | Total time for mixing & preconditioning    :      255.178 s         255.313 s
          | Total time for Hartree multipole update    :        0.628 s           0.634 s
          | Total time for Hartree multipole sum       :      417.448 s         417.474 s
          | Total time for total energy evaluation     :        0.011 s           0.021 s

          Partial memory accounting:
          | Residual value for overall tracked memory usage across tasks :           0.000 MB (should be 0.000 MB)
          | Peak values for overall tracked memory usage (after allocating temp_ham_ovlp):
          |   Minimum:      521.225 MB (on task  1)
          |   Maximum:      521.225 MB (on task  1)
          |   Average:      521.225 MB
          | Largest tracked array allocation (overlap_matrix):
          |   Minimum:      136.942 MB (on task  1)
          |   Maximum:      136.942 MB (on task  1)
          |   Average:      136.942 MB
          Note:  These values currently only include a subset of arrays which are explicitly tracked.
          The "true" memory usage will be greater.

          Have a nice day.
------------------------------------------------------------
