  MPI-parallelism will be employed.
------------------------------------------------------------
          Invoking FHI-aims ...
          Version 171221_1
          Compiled on 2020/09/23 at 19:46:43 on host login.service.

          When using FHI-aims, please cite the following reference:

          Volker Blum, Ralf Gehrke, Felix Hanke, Paula Havu,
          Ville Havu, Xinguo Ren, Karsten Reuter, and Matthias Scheffler,
          'Ab Initio Molecular Simulations with Numeric Atom-Centered Orbitals',
          Computer Physics Communications 180, 2175-2196 (2009)

          For any questions about FHI-aims, please visit the aimsclub website
          with its forums and wiki. Contributions to both the forums and the
          wiki are warmly encouraged - they are for you, and everyone is welcome there.

------------------------------------------------------------



  Date     :  20220704, Time     :  050357.453
  Time zero on CPU 1             :   0.103236000000000E+00  s.
  Internal wall clock time zero  :           426143037.453  s.

  FHI-aims created a unique identifier for this run for later identification
  aims_uuid : D2150D36-344C-4C2B-A657-1BA0B7B51016

  Using       20 parallel tasks.
  Task        0 on host node042 reporting.
  Task        1 on host node042 reporting.
  Task        2 on host node042 reporting.
  Task        3 on host node042 reporting.
  Task        4 on host node042 reporting.
  Task        5 on host node042 reporting.
  Task        6 on host node042 reporting.
  Task        7 on host node042 reporting.
  Task        8 on host node042 reporting.
  Task        9 on host node042 reporting.
  Task       10 on host node042 reporting.
  Task       11 on host node042 reporting.
  Task       12 on host node042 reporting.
  Task       13 on host node042 reporting.
  Task       14 on host node042 reporting.
  Task       15 on host node042 reporting.
  Task       16 on host node042 reporting.
  Task       17 on host node042 reporting.
  Task       18 on host node042 reporting.
  Task       19 on host node042 reporting.

  Performing system and environment tests:
  *** Environment variable OMP_NUM_THREADS is not set
  *** For performance reasons you might want to set it to 1
  | Maximum stacksize for task 0: unlimited
  | Maximum stacksize for task 1: unlimited
  | Maximum stacksize for task 2: unlimited
  | Maximum stacksize for task 3: unlimited
  | Maximum stacksize for task 4: unlimited
  | Maximum stacksize for task 5: unlimited
  | Maximum stacksize for task 6: unlimited
  | Maximum stacksize for task 7: unlimited
  | Maximum stacksize for task 8: unlimited
  | Maximum stacksize for task 9: unlimited
  | Maximum stacksize for task 10: unlimited
  | Maximum stacksize for task 11: unlimited
  | Maximum stacksize for task 12: unlimited
  | Maximum stacksize for task 13: unlimited
  | Maximum stacksize for task 14: unlimited
  | Maximum stacksize for task 15: unlimited
  | Maximum stacksize for task 16: unlimited
  | Maximum stacksize for task 17: unlimited
  | Maximum stacksize for task 18: unlimited
  | Maximum stacksize for task 19: unlimited
  | Current stacksize for task 0: unlimited
  | Current stacksize for task 1: unlimited
  | Current stacksize for task 2: unlimited
  | Current stacksize for task 3: unlimited
  | Current stacksize for task 4: unlimited
  | Current stacksize for task 5: unlimited
  | Current stacksize for task 6: unlimited
  | Current stacksize for task 7: unlimited
  | Current stacksize for task 8: unlimited
  | Current stacksize for task 9: unlimited
  | Current stacksize for task 10: unlimited
  | Current stacksize for task 11: unlimited
  | Current stacksize for task 12: unlimited
  | Current stacksize for task 13: unlimited
  | Current stacksize for task 14: unlimited
  | Current stacksize for task 15: unlimited
  | Current stacksize for task 16: unlimited
  | Current stacksize for task 17: unlimited
  | Current stacksize for task 18: unlimited
  | Current stacksize for task 19: unlimited
  | Checking for scalapack...
  | Testing pdtran()...
  | All pdtran() tests passed.

  Obtaining array dimensions for all initial allocations:
  
  -----------------------------------------------------------------------
  Parsing control.in (first pass over file, find array dimensions only).
  The contents of control.in will be repeated verbatim below
  unless switched off by setting 'verbatim_writeout .false.' .
  in the first line of control.in .
  -----------------------------------------------------------------------
  
  #===============================================================================
  # FHI-aims file: ./control.in
  # Created using the Atomic Simulation Environment (ASE)
  # Wed Mar 24 12:41:28 2021
  #===============================================================================
  xc                                 pbe
  sc_accuracy_etot                   1e-06
  sc_accuracy_eev                    0.001
  sc_accuracy_rho                    1e-06
  sc_accuracy_forces                 0.0001
  friction_temperature               300  # default 300
  
    k_grid                           1  1  2
  
  
  
  ################################################################################
  #
  #  FHI-aims code project
  # Volker Blum, Fritz Haber Institute Berlin, 2009
  #
  #  Suggested "tight" defaults for Li atom (to be pasted into control.in file)
  #
  #  2016/03/22: Increased cutoff radius to 5.0 AA (Xinguo Ren, Aug 15, 2015)
  #
  ################################################################################
    species        Li
  #     global species definitions
      nucleus             3
      mass                6.941
  #
      l_hartree           6
  #
      cut_pot             5.0  2.0  1.0
      basis_dep_cutoff    1e-4
  #
      radial_base         29 7.0
      radial_multiplier   2
      angular_grids       specified
        division   0.4484  110
        division   0.5659  194
        division   0.6315  302
        division   0.6662  434
  #      division   0.8186  590
  #      division   0.9037  770
  #      division   6.2760  974
  #      outer_grid   974
        outer_grid  434
  ################################################################################
  #
  #  Definition of "minimal" basis
  #
  ################################################################################
  #     valence basis states
      valence      2  s   1.
  #     ion occupancy
      ion_occ      1  s   2.
  ################################################################################
  #
  #  Suggested additional basis functions. For production calculations,
  #  uncomment them one after another (the most important basis functions are
  #  listed first).
  #
  #  Constructed for dimers: 1.80 A, 2.25 A, 2.75 A, 3.50 A, 4.50 A
  #
  ################################################################################
  #  "First tier" - improvements: -189.23 meV to -6.35 meV
       hydro 2 p 1.6
       hydro 2 s 2
       hydro 3 d 2.6
  #  "Second tier" - improvements: -4.69 meV to -0.41 meV
       hydro 3 p 4.6
       hydro 2 p 1.8
       hydro 3 s 6.2
       hydro 4 d 4.7
       hydro 4 f 4.1
  #  "Third tier" - improvements: -0.20 meV to -0.15 meV
  #     hydro 4 d 0.95
  #     hydro 3 p 6.2
  #     hydro 3 s 1.7
  #  Further functions, listed for completeness
  #     VB: The following functions are only listed for completeness; test very
  #         carefully before any kind of production use. From the point of view
  #         of the basis construction, their main role is to fill up space,
  #         and they are solely determined by the location of the cutoff potential.
  #     hydro 3 p 0.1  # -0.15 meV
  #     hydro 4 d 5    # -0.12 meV
  #     hydro 4 f 0.1  # -0.14 meV
  #     hydro 5 g 0.1  # -0.06 meV
  
  
  ################################################################################
  #
  # For methods that use the localized form of the "resolution of identity" for
  # the two-electron Coulomb operator (RI_method LVL), particularly Hartree-Fock and
  # hybrid density functional calculations, the highest accuracy can be obtained by
  # uncommenting the line beginning with "for_aux"  below, thus adding an extra g radial
  # function to the construction of the product basis set for the expansion.
  # See Ref. New J. Phys. 17, 093020 (2015) for more information, particularly Figs. 1 and 6.
  #
  ################################################################################
  #
  # for_aux hydro 5 g 6.0
  ################################################################################
  #
  #  FHI-aims code project
  # Volker Blum, Fritz Haber Institute Berlin, 2010
  #
  #  Suggested "tight" defaults for P atom (to be pasted into control.in file)
  #
  #  Revised Jan 04, 2011, following tests (SiC) done by Lydia Nemec:
  #     d function of tier 2 now enabled by default.
  #
  ################################################################################
    species        P
  #     global species definitions
      nucleus             15
      mass                30.973762
  #
      l_hartree           6
  #
      cut_pot             4.0          2.0  1.0
      basis_dep_cutoff    1e-4
  #
      radial_base         43 7.0
      radial_multiplier   2
      angular_grids       specified
        division   0.2995   50
        division   0.5998  110
        division   0.9240  194
        division   1.0921  302
        division   1.2863  434
  #      division   1.3165  590
  #      division   1.4113  770
  #      division   1.5128  974
  #      division   2.4980 1202
        outer_grid  434
  ################################################################################
  #
  #  Definition of "minimal" basis
  #
  ################################################################################
  #     valence basis states
      valence      3  s   2.
      valence      3  p   3.
  #     ion occupancy
      ion_occ      3  s   1.
      ion_occ      3  p   2.
  ################################################################################
  #
  #  Suggested additional basis functions. For production calculations,
  #  uncomment them one after another (the most important basis functions are
  #  listed first).
  #
  #  Constructed for dimers: 1.625 A, 1.875 A, 2.5 A, 3.25 A, 4.0 A
  #
  ################################################################################
  #  "First tier" - improvements: -726.20 meV to -35.91 meV
       ionic 3 d auto
       ionic 3 p auto
       hydro 4 f 6.2
       hydro 5 g 8.6
       ionic 3 s auto
  #  "Second tier" - improvements: -16.02 meV to -1.71 meV
       hydro 4 d 6.2
  #     hydro 4 p 9.2
  #     hydro 5 f 9.8
  #     hydro 1 s 0.7
  #     hydro 5 g 13.2
  #  "Third tier" - improvements: -1.82 meV to -0.20 meV
  #     hydro 3 p 2.5
  #     hydro 4 d 6.4
  #     hydro 5 f 11.2
  #     hydro 2 s 1.5
  #  "Fourth tier" - improvements: -0.91 meV to -0.17 meV
  #     hydro 3 d 16.8
  #     hydro 5 g 18
  #     hydro 4 p 4.5
  #     hydro 3 s 2.1
  #  Further basis functions that fell out of the optimization - < -0.09 meV
  #     hydro 4 p 10.4
  #     hydro 4 d 17.6
  #     hydro 4 s 11.2
  ################################################################################
  #
  # For methods that use the localized form of the "resolution of identity" for
  # the two-electron Coulomb operator (RI_method LVL), particularly Hartree-Fock and
  # hybrid density functional calculations, the highest accuracy can be obtained by
  # uncommenting the line beginning with "for_aux"  below, thus adding an extra g radial
  # function to the construction of the product basis set for the expansion.
  # See Ref. New J. Phys. 17, 093020 (2015) for more information, particularly Figs. 1 and 6.
  #
  ################################################################################
  #
  # for_aux hydro 5 g 6.0
  ################################################################################
  #
  #  FHI-aims code project
  # Volker Blum, Fritz Haber Institute Berlin, 2009
  #
  #  Suggested "tight" defaults for S atom (to be pasted into control.in file)
  #
  #  Revised Jan 04, 2011, following tests (SiC) done by Lydia Nemec:
  #     d and g functions of tier 2 now enabled by default.
  #
  ################################################################################
    species        S
  #     global species definitions
      nucleus             16
      mass                32.065
  #
      l_hartree           6
  #
      cut_pot             4.0          2.0  1.0
      basis_dep_cutoff    1e-4
  #
      radial_base         44 7.0
      radial_multiplier   2
      angular_grids       specified
        division   0.4665  110
        division   0.5810  194
        division   0.7139  302
        division   0.8274  434
  #      division   0.9105  590
  #      division   1.0975  770
  #      division   1.2028  974
  #      outer_grid  974
        outer_grid  434
  ################################################################################
  #
  #  Definition of "minimal" basis
  #
  ################################################################################
  #     valence basis states
      valence      3  s   2.
      valence      3  p   4.
  #     ion occupancy
      ion_occ      3  s   1.
      ion_occ      3  p   3.
  ################################################################################
  #
  #  Suggested additional basis functions. For production calculations,
  #  uncomment them one after another (the most important basis functions are
  #  listed first).
  #
  #  Constructed for dimers: 1.6 A, 1.9 A, 2.5 A, 3.25 A, 4.0 A
  #
  ################################################################################
  #  "First tier" - improvements: -652.81 meV to -45.53 meV
       ionic 3 d auto
       hydro 2 p 1.8
       hydro 4 f 7
       ionic 3 s auto
  #  "Second tier" - improvements: -30.20 meV to -1.74 meV
       hydro 4 d 6.2
       hydro 5 g 10.8
  #     hydro 4 p 4.9
  #     hydro 5 f 10
  #     hydro 1 s 0.8
  #  "Third tier" - improvements: -1.04 meV to -0.20 meV
  #     hydro 3 d 3.9
  #     hydro 3 d 2.7
  #     hydro 5 g 12
  #     hydro 4 p 10.4
  #     hydro 5 f 12.4
  #     hydro 2 s 1.9
  #  "Fourth tier" - improvements: -0.35 meV to -0.06 meV
  #     hydro 4 d 10.4
  #     hydro 4 p 7.2
  #     hydro 4 d 10
  #     hydro 5 g 19.2
  #     hydro 4 s 12
  
  ################################################################################
  #
  # For methods that use the localized form of the "resolution of identity" for
  # the two-electron Coulomb operator (RI_method LVL), particularly Hartree-Fock and
  # hybrid density functional calculations, the highest accuracy can be obtained by
  # uncommenting the line beginning with "for_aux"  below, thus adding an extra g radial
  # function to the construction of the product basis set for the expansion.
  # See Ref. New J. Phys. 17, 093020 (2015) for more information, particularly Figs. 1 and 6.
  #
  ################################################################################
  #
  # for_aux hydro 5 g 6.0
  ################################################################################
  #
  #  FHI-aims code project
  # Volker Blum, Fritz Haber Institute Berlin, 2009
  #
  #  Suggested "tight" defaults for Cl atom (to be pasted into control.in file)
  #
  #  Revised Jan 04, 2011, following tests (SiC) done by Lydia Nemec:
  #     d function of tier 2 now enabled by default.
  #
  ################################################################################
    species        Cl
  #     global species definitions
      nucleus             17
      mass                35.453
  #
      l_hartree           6
  #
      cut_pot             4.0          2.0  1.0
      basis_dep_cutoff    1e-4
  #
      radial_base         45 7.0
      radial_multiplier   2
      angular_grids       specified
        division   0.4412  110
        division   0.5489  194
        division   0.6734  302
        division   0.7794  434
  #      division   0.9402  590
  #      division   1.0779  770
  #      division   1.1792  974
  #      outer_grid  974
        outer_grid  434
  ################################################################################
  #
  #  Definition of "minimal" basis
  #
  ################################################################################
  #     valence basis states
      valence      3  s   2.
      valence      3  p   5.
  #     ion occupancy
      ion_occ      3  s   1.
      ion_occ      3  p   4.
  ################################################################################
  #
  #  Suggested additional basis functions. For production calculations,
  #  uncomment them one after another (the most important basis functions are
  #  listed first).
  #
  #  Constructed for dimers: 1.65 A, 2.0 A, 2.5 A, 3.25 A, 4.0 A
  #
  ################################################################################
  #  "First tier" - improvements: -429.57 meV to -15.03 meV
       ionic 3 d auto
       hydro 2 p 1.9
       hydro 4 f 7.4
       ionic 3 s auto
       hydro 5 g 10.4
  #  "Second tier" - improvements: -7.84 meV to -0.48 meV
       hydro 3 d 3.3
  #     hydro 5 f 9.8
  #     hydro 1 s 0.75
  #     hydro 5 g 11.2
  #     hydro 4 p 10.4
  #  "Third tier" - improvements: -1.00 meV to -0.12 meV
  #     hydro 4 d 12.8
  #     hydro 4 f 4.6
  #     hydro 4 d 10.8
  #     hydro 2 s 1.8
  #     hydro 3 p 3
  #  Further functions that fell out - improvements: -0.10 meV and below
  #     hydro 5 f 14.4
  #     hydro 4 s 12.8
  #     hydro 3 d 11.6
  #     hydro 4 s 4.1
  ################################################################################
  #
  # For methods that use the localized form of the "resolution of identity" for
  # the two-electron Coulomb operator (RI_method LVL), particularly Hartree-Fock and
  # hybrid density functional calculations, the highest accuracy can be obtained by
  # uncommenting the line beginning with "for_aux"  below, thus adding an extra g radial
  # function to the construction of the product basis set for the expansion.
  # See Ref. New J. Phys. 17, 093020 (2015) for more information, particularly Figs. 1 and 6.
  #
  ################################################################################
  #
  # for_aux hydro 5 g 6.0
  
  -----------------------------------------------------------------------
  Completed first pass over input file control.in .
  -----------------------------------------------------------------------
  
  
  -----------------------------------------------------------------------
  Parsing geometry.in (first pass over file, find array dimensions only).
  The contents of geometry.in will be repeated verbatim below
  unless switched off by setting 'verbatim_writeout .false.' .
  in the first line of geometry.in .
  -----------------------------------------------------------------------
  
  #=======================================================
  # FHI-aims file: ./data/test_rep/geometry.in.6
  # Created using the Atomic Simulation Environment (ASE)
  # Mon Jul  4 10:21:46 2022
  #=======================================================
  lattice_vector 19.9984596443340017 0.0000000000000000 0.0000000000000000
  lattice_vector 0.0000000000000000 16.6016380500609984 0.0000000000000000
  lattice_vector 0.0000000000000000 0.0000000000000000 7.6751657629269996
  atom 2.7602215482200001 2.4570308359799999 4.7567029134499998 Li
  atom 1.7854498482700001 8.3307514617400003 4.3174573272499996 Li
  atom 9.1551082955899989 3.7548998987199997 2.8925109482600000 Li
  atom 6.9846882865700000 1.4252580548900000 6.4685269351400008 Li
  atom 8.2202629692700011 0.9469556151700000 3.1347748921699998 Li
  atom 6.8295618623800003 6.0685795591299998 3.5334842586600002 Li
  atom 12.7955296675500012 2.4506030656899997 2.6453472135700000 Li
  atom 12.2003825983100000 8.6441430507600003 4.4700565243899995 Li
  atom 19.6280512672600018 4.7006031967099995 4.3438042579499996 Li
  atom 14.2242538212499987 2.9695108767900003 6.4346792364100001 Li
  atom 18.1974425596099998 1.0595804394400001 4.6810886130100000 Li
  atom 16.2242170786600006 7.3874977571500002 5.4547936438600004 Li
  atom 3.5197098059400003 11.2814104653200005 4.6959451312500002 Li
  atom 1.3852856979800001 16.5371936101999992 4.3858467169199997 Li
  atom 9.3083829463900010 12.6084804501000001 4.1266936913799999 Li
  atom 6.7115007110900002 8.9365525442599996 4.8273215811800005 Li
  atom 8.4546604463699992 9.2968401644200007 2.2639166978100000 Li
  atom 6.6708314218600000 14.7027248451200006 4.6857900892799993 Li
  atom 12.7070498103600009 11.2513137662000009 2.6636071207300001 Li
  atom 11.5757442310199998 16.5026895235800026 3.5215484927600000 Li
  atom 0.1684510602800000 13.0230757157199992 4.5060264532999996 Li
  atom 16.5156065115500006 10.5494852631400011 6.4075719807399993 Li
  atom 18.6572927376700015 8.9653935245200014 3.3027425220100000 Li
  atom 16.8073606968499973 15.2504115426899993 5.3244904320500002 Li
  atom 9.2711585409200001 7.2862752804099999 4.5649218520599995 P
  atom 4.7646363331599995 0.6555154317999999 3.4416606853700000 P
  atom 19.4521011801900023 8.0817686887699995 6.4569679012599996 P
  atom 15.1177945208700013 1.1682812016099999 2.9696376630999999 P
  atom 9.4025718922100001 15.8828053818299999 5.3644952947999993 P
  atom 4.5016171225599999 8.6335104999799999 2.7885738813900001 P
  atom 19.4613260757900015 16.2317964731700002 6.5855075449999996 P
  atom 15.0028736969299992 9.0555460760399988 3.3511756852800003 P
  atom 1.2197773908700000 0.7454454005300000 6.8298145744800003 S
  atom 2.9572190969999999 0.4211412846900000 2.5465185459100002 S
  atom 5.5574726102900005 2.6440105987600000 2.3347755405099999 S
  atom 9.1332779869199996 6.2574955939199999 2.6733305341500002 S
  atom 7.9223079950199997 15.6608270121900013 6.7319363127800003 S
  atom 6.3043030086700007 7.8030672192799999 2.2788818667999999 S
  atom 11.0057185847400003 6.5723378408900004 5.5732697415299999 S
  atom 4.6340418868399995 1.2533990010999998 5.4639609967300000 S
  atom 0.3784681292000000 2.6800868089600001 2.3021024091600002 S
  atom 1.2876128308900001 4.6401683519100008 2.4122089923500001 S
  atom 7.2823613536599998 2.2292065429100001 1.3375891388199999 S
  atom 7.7876816044600004 3.0767108860199999 4.8298989981600000 S
  atom 11.3110413180999991 4.7166959993899997 4.4836417172500003 S
  atom 6.1224918511999995 3.9121342474500000 4.1897937484200005 S
  atom 3.1459170404700001 4.5725954987599993 3.4133617064599999 S
  atom 3.0218648923800000 5.8486148921400005 5.2273729518399996 S
  atom 0.3944658262400000 2.2379456184100004 4.2917691609700004 S
  atom 2.2853590109400002 4.7253588815000001 6.7231472927799993 S
  atom 10.0216167946599999 1.2218511491299999 5.1744110101800000 S
  atom 14.2075073980800006 1.0540045344600002 1.1542902452899999 S
  atom 16.1078670451299999 3.2112388763199999 3.0332086912200000 S
  atom 19.3415597677599997 7.0917505620999997 4.5036764014599999 S
  atom 17.7380155422600012 0.5460213105900000 7.0657040538800002 S
  atom 16.3408233926199991 7.6493647668200007 2.9528746163399999 S
  atom 19.5607926069300007 6.5143535782799997 0.1828327401500000 S
  atom 13.6505520436299985 1.2920685337600000 4.4869835759600001 S
  atom 10.3971173994300017 1.7125814641199999 0.3744810905700000 S
  atom 10.2247278188999999 3.6958254168600000 0.1130704160700000 S
  atom 17.4185723635099983 3.3926183668599998 4.5952913653100005 S
  atom 16.4635875846700017 4.0722144984300002 6.5414695785300001 S
  atom 0.1591173563700000 4.7827885096800005 6.7783174691500001 S
  atom 15.0446616793299999 5.3292966715799999 6.1373421013799998 S
  atom 12.2743319612199997 4.4207306120199998 7.6683749959099998 S
  atom 12.7064216257100000 5.8428335349799996 1.6175199015299999 S
  atom 10.5030231199199999 1.6971173864400000 2.4623823916799998 S
  atom 13.1040576914600013 4.9839881341699996 3.3731814016600001 S
  atom 1.0935867920000000 9.3440884684099998 6.6832307232199994 S
  atom 2.8177120581900001 7.7897851890300007 1.9135847971300000 S
  atom 4.7455565686000005 10.6529064856400009 2.0862096430200001 S
  atom 9.0429606609699995 14.7871024721700000 3.5213968402500004 S
  atom 7.6377624362600001 7.0461800135499999 5.7737240819700002 S
  atom 6.1777583856099998 15.9794106900300008 2.8187491958800002 S
  atom 11.3564303353099998 15.3578146538299993 6.0504624659699999 S
  atom 4.2998742170500002 9.0107518175300001 4.8614584055400005 S
  atom 1.2974723185799999 11.2243044148800006 2.0542847125999999 S
  atom 1.6605673216099999 13.3056779304500008 2.4570187200199998 S
  atom 6.7353705319500001 11.3111430149999990 2.3454646846200000 S
  atom 7.0879727964800008 11.4573368769799995 4.4949203195800003 S
  atom 11.2396726375000000 13.2536234556100005 5.6440261096299995 S
  atom 5.6944436663599998 12.6257587170500010 5.4836681268299996 S
  atom 3.4767187973899998 13.5109569126200011 3.6013338265600003 S
  atom 3.0636451260599999 14.7428554256000002 5.3785278984699998 S
  atom 0.9068455184999999 10.6068179161699998 3.9771623248000001 S
  atom 2.5883776060500003 13.6128077436900004 6.9651564227799998 S
  atom 9.8274159782999995 9.3035828537200000 4.5470368467999993 S
  atom 13.2504914486400001 8.9422156516300007 2.2865040954100002 S
  atom 15.7624644676300001 10.9423186799099987 2.6008181467200000 S
  atom 19.2696368062300003 15.2347264275200001 4.6273878482700006 S
  atom 17.6783260875600021 8.7514660093100005 7.2483863848299999 S
  atom 16.5106179872199981 16.4198318223000008 3.1562188283700001 S
  atom 19.4601316912000009 14.6810896573400012 0.2988372254100000 S
  atom 14.4902393271100003 9.2794372159999998 5.3784629372900001 S
  atom 10.5662122892600010 12.4241123170399987 0.8430441962400000 S
  atom 11.7085176553799997 14.1606191227299991 1.4868391577800000 S
  atom 17.7719792293900021 11.1788283669799995 2.8209949430000001 S
  atom 18.0238907781400002 11.8261216311799995 5.0453269693699996 S
  atom 0.4921408163500000 13.1526948706900004 6.9559401202600002 S
  atom 16.4167395578200015 12.8360833360200015 5.7792691425600005 S
  atom 13.6663758580599985 13.5106273970899995 1.7605237785000001 S
  atom 14.0130431494799996 14.1901537659399999 3.7881897057700002 S
  atom 10.3069162941800005 11.1737441380800000 2.3874927329100002 S
  atom 13.2424347129800015 12.7855349327799992 5.0058857169200000 S
  
  -----------------------------------------------------------------------
  Completed first pass over input file geometry.in .
  -----------------------------------------------------------------------
  

  Basic array size parameters:
  | Number of species                 :        4
  | Number of atoms                   :      104
  | Number of lattice vectors         :        3
  | Max. basis fn. angular momentum   :        4
  | Max. atomic/ionic basis occupied n:        3
  | Max. number of basis fn. types    :        3
  | Max. radial fns per species/type  :        8
  | Max. logarithmic grid size        :     1362
  | Max. radial integration grid size :       91
  | Max. angular integration grid size:      434
  | Max. angular grid division number :        8
  | Radial grid for Hartree potential :     1362
  | Number of spin channels           :        1

------------------------------------------------------------
          Reading file control.in.
------------------------------------------------------------
  XC: Using PBE gradient-corrected functionals.
  Convergence accuracy of total energy:  0.1000E-05
  Convergence accuracy of sum of eigenvalues:  0.1000E-02
  Convergence accuracy of self-consistent charge density:  0.1000E-05
  Convergence accuracy of forces:  0.1000E-03
  Friction is calculated at temperature of   0.3000E+03 K
  Found k-point grid:         1         1         2
 
  Reading configuration options for species Li                  .
  | Found nuclear charge :   3.0000
  | Found atomic mass :    6.94100000000000      amu
  | Found l_max for Hartree potential  :   6
  | Found cutoff potl. onset [A], width [A], scale factor :    5.00000    2.00000    1.00000
  | Threshold for basis-dependent cutoff potential is   0.100000E-03
  | Found data for basic radial integration grid :    29 points, outermost radius =    7.000 A
  | Found multiplier for basic radial grid :   2
  | Found angular grid specification: user-specified.
  | Specified grid contains     5 separate shells.
  | Check grid settings after all constraints further below.
  | Found free-atom valence shell :  2 s   1.000
  | Found free-ion valence shell :  1 s   2.000
  | Found hydrogenic basis function :  2 p   1.600
  | Found hydrogenic basis function :  2 s   2.000
  | Found hydrogenic basis function :  3 d   2.600
  | Found hydrogenic basis function :  3 p   4.600
  | Found hydrogenic basis function :  2 p   1.800
  | Found hydrogenic basis function :  3 s   6.200
  | Found hydrogenic basis function :  4 d   4.700
  | Found hydrogenic basis function :  4 f   4.100
  Species Li                  : Missing cutoff potential type.
  Defaulting to exp(1/x)/(1-x)^2 type cutoff potential.
  Species Li: No 'logarithmic' tag. Using default grid for free atom:
  | Default logarithmic grid data [bohr] : 0.1000E-03 0.1000E+03 0.1012E+01
  Species Li: On-site basis accuracy parameter (for Gram-Schmidt orthonormalisation) not specified.
  Using default value basis_acc =  0.1000000E-03.
  Species Li                  : Using default innermost maximum threshold i_radial=  2 for radial functions.
  Species Li                  : Default cutoff onset for free atom density etc. : 0.50000000E+01 AA.
  Species Li                  : Basic radial grid will be enhanced according to radial_multiplier =   2, to contain    59 grid points.
 
  Reading configuration options for species P                   .
  | Found nuclear charge :  15.0000
  | Found atomic mass :    30.9737620000000      amu
  | Found l_max for Hartree potential  :   6
  | Found cutoff potl. onset [A], width [A], scale factor :    4.00000    2.00000    1.00000
  | Threshold for basis-dependent cutoff potential is   0.100000E-03
  | Found data for basic radial integration grid :    43 points, outermost radius =    7.000 A
  | Found multiplier for basic radial grid :   2
  | Found angular grid specification: user-specified.
  | Specified grid contains     6 separate shells.
  | Check grid settings after all constraints further below.
  | Found free-atom valence shell :  3 s   2.000
  | Found free-atom valence shell :  3 p   3.000
  | Found free-ion valence shell :  3 s   1.000
  | Found free-ion valence shell :  3 p   2.000
  | Found ionic basis function :  3 d , default cutoff radius.
  | Found ionic basis function :  3 p , default cutoff radius.
  | Found hydrogenic basis function :  4 f   6.200
  | Found hydrogenic basis function :  5 g   8.600
  | Found ionic basis function :  3 s , default cutoff radius.
  | Found hydrogenic basis function :  4 d   6.200
  Species P                   : Missing cutoff potential type.
  Defaulting to exp(1/x)/(1-x)^2 type cutoff potential.
  Species P : No 'logarithmic' tag. Using default grid for free atom:
  | Default logarithmic grid data [bohr] : 0.1000E-03 0.1000E+03 0.1012E+01
  | Will include ionic basis functions of  2.0-fold positive P                    ion.
  Species P : On-site basis accuracy parameter (for Gram-Schmidt orthonormalisation) not specified.
  Using default value basis_acc =  0.1000000E-03.
  Species P                   : Using default innermost maximum threshold i_radial=  2 for radial functions.
  Species P                   : Default cutoff onset for free atom density etc. : 0.40000000E+01 AA.
  Species P                   : Basic radial grid will be enhanced according to radial_multiplier =   2, to contain    87 grid points.
 
  Reading configuration options for species S                   .
  | Found nuclear charge :  16.0000
  | Found atomic mass :    32.0650000000000      amu
  | Found l_max for Hartree potential  :   6
  | Found cutoff potl. onset [A], width [A], scale factor :    4.00000    2.00000    1.00000
  | Threshold for basis-dependent cutoff potential is   0.100000E-03
  | Found data for basic radial integration grid :    44 points, outermost radius =    7.000 A
  | Found multiplier for basic radial grid :   2
  | Found angular grid specification: user-specified.
  | Specified grid contains     5 separate shells.
  | Check grid settings after all constraints further below.
  | Found free-atom valence shell :  3 s   2.000
  | Found free-atom valence shell :  3 p   4.000
  | Found free-ion valence shell :  3 s   1.000
  | Found free-ion valence shell :  3 p   3.000
  | Found ionic basis function :  3 d , default cutoff radius.
  | Found hydrogenic basis function :  2 p   1.800
  | Found hydrogenic basis function :  4 f   7.000
  | Found ionic basis function :  3 s , default cutoff radius.
  | Found hydrogenic basis function :  4 d   6.200
  | Found hydrogenic basis function :  5 g  10.800
  Species S                   : Missing cutoff potential type.
  Defaulting to exp(1/x)/(1-x)^2 type cutoff potential.
  Species S : No 'logarithmic' tag. Using default grid for free atom:
  | Default logarithmic grid data [bohr] : 0.1000E-03 0.1000E+03 0.1012E+01
  | Will include ionic basis functions of  2.0-fold positive S                    ion.
  Species S : On-site basis accuracy parameter (for Gram-Schmidt orthonormalisation) not specified.
  Using default value basis_acc =  0.1000000E-03.
  Species S                   : Using default innermost maximum threshold i_radial=  2 for radial functions.
  Species S                   : Default cutoff onset for free atom density etc. : 0.40000000E+01 AA.
  Species S                   : Basic radial grid will be enhanced according to radial_multiplier =   2, to contain    89 grid points.
 
  Reading configuration options for species Cl                  .
  | Found nuclear charge :  17.0000
  | Found atomic mass :    35.4530000000000      amu
  | Found l_max for Hartree potential  :   6
  | Found cutoff potl. onset [A], width [A], scale factor :    4.00000    2.00000    1.00000
  | Threshold for basis-dependent cutoff potential is   0.100000E-03
  | Found data for basic radial integration grid :    45 points, outermost radius =    7.000 A
  | Found multiplier for basic radial grid :   2
  | Found angular grid specification: user-specified.
  | Specified grid contains     5 separate shells.
  | Check grid settings after all constraints further below.
  | Found free-atom valence shell :  3 s   2.000
  | Found free-atom valence shell :  3 p   5.000
  | Found free-ion valence shell :  3 s   1.000
  | Found free-ion valence shell :  3 p   4.000
  | Found ionic basis function :  3 d , default cutoff radius.
  | Found hydrogenic basis function :  2 p   1.900
  | Found hydrogenic basis function :  4 f   7.400
  | Found ionic basis function :  3 s , default cutoff radius.
  | Found hydrogenic basis function :  5 g  10.400
  | Found hydrogenic basis function :  3 d   3.300
  Species Cl                  : Missing cutoff potential type.
  Defaulting to exp(1/x)/(1-x)^2 type cutoff potential.
  Species Cl: No 'logarithmic' tag. Using default grid for free atom:
  | Default logarithmic grid data [bohr] : 0.1000E-03 0.1000E+03 0.1012E+01
  | Will include ionic basis functions of  2.0-fold positive Cl                   ion.
  Species Cl: On-site basis accuracy parameter (for Gram-Schmidt orthonormalisation) not specified.
  Using default value basis_acc =  0.1000000E-03.
  Species Cl                  : Using default innermost maximum threshold i_radial=  2 for radial functions.
  Species Cl                  : Default cutoff onset for free atom density etc. : 0.40000000E+01 AA.
  Species Cl                  : Basic radial grid will be enhanced according to radial_multiplier =   2, to contain    91 grid points.
 
  Finished reading input file 'control.in'. Consistency checks are next.
 
  MPI_IN_PLACE appears to work with this MPI implementation.
  | Keeping use_mpi_in_place .true. (see manual).
  Target number of points in a grid batch is not set. Defaulting to  100
  Method for grid partitioning is not set. Defaulting to parallel hash+maxmin partitioning.
  Batch size limit is not set. Defaulting to    200
  By default, will store active basis functions for each batch.
  If in need of memory, prune_basis_once .false. can be used to disable this option.
  communication_type for Hartree potential was not specified.
  Defaulting to calc_hartree .
  Defaulting to Pulay charge density mixer.
  Pulay mixer: Number of relevant iterations not set.
  Defaulting to    8 iterations.
  Pulay mixer: Number of initial linear mixing iterations not set.
  Defaulting to    0 iterations.
  Work space size for distributed Hartree potential not set.
  Defaulting to   0.200000E+03 MB.
  Mixing parameter for charge density mixing has not been set.
  Using default: charge_mix_param =     0.0500.
  The mixing parameter will be adjusted in iteration number     2 of the first full s.c.f. cycle only.
  Algorithm-dependent basis array size parameters:
  | n_max_pulay                         :        8
  Maximum number of self-consistency iterations not provided.
  Presetting  1000 iterations.
  Presetting      1001 iterations before the initial mixing cycle
  is restarted anyway using the sc_init_iter criterion / keyword.
  Presetting a factor      1.000 between actual scf density residual
  and density convergence criterion sc_accuracy_rho below which sc_init_iter
  takes no effect.
  Geometry relaxation not requested: no relaxation will be performed.
  Handling of forces: Unphysical translation and rotation will be removed from forces.
  No accuracy limit for integral partition fn. given. Defaulting to  0.1000E-14.
  No threshold value for u(r) in integrations given. Defaulting to  0.1000E-05.
  No occupation type (smearing scheme) given. Defaulting to Gaussian broadening, width =  0.1000E-01 eV.
  The width will be adjusted in iteration number     2 of the first full s.c.f. cycle only.
  S.C.F. convergence parameters will be adjusted in iteration number     2 of the first full s.c.f. cycle only.
  No accuracy for occupation numbers given. Defaulting to  0.1000E-12.
  No threshold value for occupation numbers given. Defaulting to  0.0000E+00.
  No accuracy for fermi level given. Defaulting to  0.1000E-19.
  Maximum # of iterations to find E_F not set. Defaulting to  200.
  Preferred method for the eigenvalue solver ('KS_method') not specified in 'control.in'.
  Calling BLACS routine to test compilation state
  Since ScaLAPACK support is enabled, defaulting to 'elsi'.
  Will not use alltoall communication since running on < 1024 CPUs.
  Threshold for basis singularities not set.
  Default threshold for basis singularities:  0.1000E-04
  partition_type (choice of integration weights) for integrals was not specified.
  | Using a version of the partition function of Stratmann and coworkers ('stratmann_smoother').
  | At each grid point, the set of atoms used to build the partition table is smoothly restricted to
  | only those atoms whose free-atom density would be non-zero at that grid point.
  Partitioning for Hartree potential was not defined. Using partition_type for integrals.
  | Adjusted default value of keyword multip_moments_threshold to:       0.10000000E-11
  | This value may affect high angular momentum components of the Hartree potential in periodic systems.
  Spin handling was not defined in control.in. Defaulting to unpolarized case.
  Angular momentum expansion for Kerker preconditioner not set explicitly.
  | Using default value of   0
  No explicit requirement for turning off preconditioner.
  | By default, it will be turned off when the charge convergence reaches
  | sc_accuracy_rho  =   0.100000E-05
  | sc_accuracy_eev  =   0.100000E-02
  | sc_accuracy_etot =   0.100000E-05
  No special mixing parameter while Kerker preconditioner is on.
  Using default: charge_mix_param =     0.0500.
  No q(lm)/r^(l+1) cutoff set for long-range Hartree potential.
  | Using default value of  0.100000E-09 .
  | Verify using the multipole_threshold keyword.
  Defaulting to new monopole extrapolation.
  Density update method: automatic selection selected.
  Using density matrix based charge density update.
  Using density matrix based charge density update.
  Using packed matrix style: index .
  Defaulting to use time-reversal symmetry for k-point grid.
------------------------------------------------------------


------------------------------------------------------------
          Reading geometry description geometry.in.
------------------------------------------------------------
 * Warning! You did not set the 'relativistic' flag in input file 'control.in'.
 * Since you are not attempting to treat any elements beyond Ca(Z=20), FHI-aims
 * will default to 'relativistic none'.
 * You must ensure that this is really what you want!!
 * For example, DO NOT compute total-energy differences between results from
 * different settings of the 'relativistic' flag.
  Input structure read successfully.
  The structure contains      104 atoms,  and a total of       1344.000 electrons.

  Input geometry:
  | Unit cell:
  |       19.99845964        0.00000000        0.00000000
  |        0.00000000       16.60163805        0.00000000
  |        0.00000000        0.00000000        7.67516576
  | Atomic structure:
  |       Atom                x [A]            y [A]            z [A]
  |    1: Species Li            2.76022155        2.45703084        4.75670291
  |    2: Species Li            1.78544985        8.33075146        4.31745733
  |    3: Species Li            9.15510830        3.75489990        2.89251095
  |    4: Species Li            6.98468829        1.42525805        6.46852694
  |    5: Species Li            8.22026297        0.94695562        3.13477489
  |    6: Species Li            6.82956186        6.06857956        3.53348426
  |    7: Species Li           12.79552967        2.45060307        2.64534721
  |    8: Species Li           12.20038260        8.64414305        4.47005652
  |    9: Species Li           19.62805127        4.70060320        4.34380426
  |   10: Species Li           14.22425382        2.96951088        6.43467924
  |   11: Species Li           18.19744256        1.05958044        4.68108861
  |   12: Species Li           16.22421708        7.38749776        5.45479364
  |   13: Species Li            3.51970981       11.28141047        4.69594513
  |   14: Species Li            1.38528570       16.53719361        4.38584672
  |   15: Species Li            9.30838295       12.60848045        4.12669369
  |   16: Species Li            6.71150071        8.93655254        4.82732158
  |   17: Species Li            8.45466045        9.29684016        2.26391670
  |   18: Species Li            6.67083142       14.70272485        4.68579009
  |   19: Species Li           12.70704981       11.25131377        2.66360712
  |   20: Species Li           11.57574423       16.50268952        3.52154849
  |   21: Species Li            0.16845106       13.02307572        4.50602645
  |   22: Species Li           16.51560651       10.54948526        6.40757198
  |   23: Species Li           18.65729274        8.96539352        3.30274252
  |   24: Species Li           16.80736070       15.25041154        5.32449043
  |   25: Species P             9.27115854        7.28627528        4.56492185
  |   26: Species P             4.76463633        0.65551543        3.44166069
  |   27: Species P            19.45210118        8.08176869        6.45696790
  |   28: Species P            15.11779452        1.16828120        2.96963766
  |   29: Species P             9.40257189       15.88280538        5.36449529
  |   30: Species P             4.50161712        8.63351050        2.78857388
  |   31: Species P            19.46132608       16.23179647        6.58550754
  |   32: Species P            15.00287370        9.05554608        3.35117569
  |   33: Species S             1.21977739        0.74544540        6.82981457
  |   34: Species S             2.95721910        0.42114128        2.54651855
  |   35: Species S             5.55747261        2.64401060        2.33477554
  |   36: Species S             9.13327799        6.25749559        2.67333053
  |   37: Species S             7.92230800       15.66082701        6.73193631
  |   38: Species S             6.30430301        7.80306722        2.27888187
  |   39: Species S            11.00571858        6.57233784        5.57326974
  |   40: Species S             4.63404189        1.25339900        5.46396100
  |   41: Species S             0.37846813        2.68008681        2.30210241
  |   42: Species S             1.28761283        4.64016835        2.41220899
  |   43: Species S             7.28236135        2.22920654        1.33758914
  |   44: Species S             7.78768160        3.07671089        4.82989900
  |   45: Species S            11.31104132        4.71669600        4.48364172
  |   46: Species S             6.12249185        3.91213425        4.18979375
  |   47: Species S             3.14591704        4.57259550        3.41336171
  |   48: Species S             3.02186489        5.84861489        5.22737295
  |   49: Species S             0.39446583        2.23794562        4.29176916
  |   50: Species S             2.28535901        4.72535888        6.72314729
  |   51: Species S            10.02161679        1.22185115        5.17441101
  |   52: Species S            14.20750740        1.05400453        1.15429025
  |   53: Species S            16.10786705        3.21123888        3.03320869
  |   54: Species S            19.34155977        7.09175056        4.50367640
  |   55: Species S            17.73801554        0.54602131        7.06570405
  |   56: Species S            16.34082339        7.64936477        2.95287462
  |   57: Species S            19.56079261        6.51435358        0.18283274
  |   58: Species S            13.65055204        1.29206853        4.48698358
  |   59: Species S            10.39711740        1.71258146        0.37448109
  |   60: Species S            10.22472782        3.69582542        0.11307042
  |   61: Species S            17.41857236        3.39261837        4.59529137
  |   62: Species S            16.46358758        4.07221450        6.54146958
  |   63: Species S             0.15911736        4.78278851        6.77831747
  |   64: Species S            15.04466168        5.32929667        6.13734210
  |   65: Species S            12.27433196        4.42073061        7.66837500
  |   66: Species S            12.70642163        5.84283353        1.61751990
  |   67: Species S            10.50302312        1.69711739        2.46238239
  |   68: Species S            13.10405769        4.98398813        3.37318140
  |   69: Species S             1.09358679        9.34408847        6.68323072
  |   70: Species S             2.81771206        7.78978519        1.91358480
  |   71: Species S             4.74555657       10.65290649        2.08620964
  |   72: Species S             9.04296066       14.78710247        3.52139684
  |   73: Species S             7.63776244        7.04618001        5.77372408
  |   74: Species S             6.17775839       15.97941069        2.81874920
  |   75: Species S            11.35643034       15.35781465        6.05046247
  |   76: Species S             4.29987422        9.01075182        4.86145841
  |   77: Species S             1.29747232       11.22430441        2.05428471
  |   78: Species S             1.66056732       13.30567793        2.45701872
  |   79: Species S             6.73537053       11.31114301        2.34546468
  |   80: Species S             7.08797280       11.45733688        4.49492032
  |   81: Species S            11.23967264       13.25362346        5.64402611
  |   82: Species S             5.69444367       12.62575872        5.48366813
  |   83: Species S             3.47671880       13.51095691        3.60133383
  |   84: Species S             3.06364513       14.74285543        5.37852790
  |   85: Species S             0.90684552       10.60681792        3.97716232
  |   86: Species S             2.58837761       13.61280774        6.96515642
  |   87: Species S             9.82741598        9.30358285        4.54703685
  |   88: Species S            13.25049145        8.94221565        2.28650410
  |   89: Species S            15.76246447       10.94231868        2.60081815
  |   90: Species S            19.26963681       15.23472643        4.62738785
  |   91: Species S            17.67832609        8.75146601        7.24838638
  |   92: Species S            16.51061799       16.41983182        3.15621883
  |   93: Species S            19.46013169       14.68108966        0.29883723
  |   94: Species S            14.49023933        9.27943722        5.37846294
  |   95: Species S            10.56621229       12.42411232        0.84304420
  |   96: Species S            11.70851766       14.16061912        1.48683916
  |   97: Species S            17.77197923       11.17882837        2.82099494
  |   98: Species S            18.02389078       11.82612163        5.04532697
  |   99: Species S             0.49214082       13.15269487        6.95594012
  |  100: Species S            16.41673956       12.83608334        5.77926914
  |  101: Species S            13.66637586       13.51062740        1.76052378
  |  102: Species S            14.01304315       14.19015377        3.78818971
  |  103: Species S            10.30691629       11.17374414        2.38749273
  |  104: Species S            13.24243471       12.78553493        5.00588572

  Lattice parameters for 3D lattice (in Angstroms) :    19.998460   16.601638    7.675166
  Angle(s) between unit vectors (in degrees)      :    90.000000   90.000000   90.000000

  |

  | The smallest distance between any two atoms is         1.93827896 AA.
  |
  | The first atom of this pair is atom number                     62 .
  | The second atom of this pair is atom number                    64 .
  | Wigner-Seitz cell of the first atom image           0     0     0 .
  | (The Wigner-Seitz cell of the second atom is 0 0 0  by definition.)

  Symmetry information by spglib:
  | Precision set to  0.1E-04
  | Number of Operations  : 1
  | Space group           : 1
  | International         : P1  W
  | Schoenflies           : C1^1

  Quantities derived from the lattice vectors:
  | Reciprocal lattice vector 1:  0.314183  0.000000  0.000000
  | Reciprocal lattice vector 2:  0.000000  0.378468  0.000000
  | Reciprocal lattice vector 3:  0.000000  0.000000  0.818638
  | Unit cell volume                               :   0.254821E+04  A^3

  Range separation radius for Ewald summation (hartree_convergence_parameter):      4.18538181 bohr.

  Fractional coordinates:
                         L1                L2                L3
       atom_frac         0.13802171        0.14799930        0.61975247  Li
       atom_frac         0.08927937        0.50180298        0.56252301  Li
       atom_frac         0.45779067        0.22617647        0.37686625  Li
       atom_frac         0.34926131        0.08585045        0.84278661  Li
       atom_frac         0.41104481        0.05703989        0.40843090  Li
       atom_frac         0.34150440        0.36554101        0.46037889  Li
       atom_frac         0.63982576        0.14761212        0.34466320  Li
       atom_frac         0.61006612        0.52068013        0.58240521  Li
       atom_frac         0.98147815        0.28314093        0.56595576  Li
       atom_frac         0.71126747        0.17886855        0.83837658  Li
       atom_frac         0.90994221        0.06382385        0.60990065  Li
       atom_frac         0.81127334        0.44498608        0.71070695  Li
       atom_frac         0.17599905        0.67953599        0.61183631  Li
       atom_frac         0.06926962        0.99611819        0.57143348  Li
       atom_frac         0.46545500        0.75947207        0.53766835  Li
       atom_frac         0.33560088        0.53829342        0.62895340  Li
       atom_frac         0.42276558        0.55999535        0.29496649  Li
       atom_frac         0.33356726        0.88561893        0.61051321  Li
       atom_frac         0.63540143        0.67772311        0.34704229  Li
       atom_frac         0.57883179        0.99403983        0.45882377  Li
       atom_frac         0.00842320        0.78444523        0.58709174  Li
       atom_frac         0.82584393        0.63544846        0.83484477  Li
       atom_frac         0.93293649        0.54003066        0.43031546  Li
       atom_frac         0.84043276        0.91860884        0.69372970  Li
       atom_frac         0.46359363        0.43888894        0.59476525  P
       atom_frac         0.23825017        0.03948499        0.44841516  P
       atom_frac         0.97267997        0.48680550        0.84128058  P
       atom_frac         0.75594795        0.07037144        0.38691512  P
       atom_frac         0.47016481        0.95670110        0.69894195  P
       atom_frac         0.22509819        0.52003968        0.36332425  P
       atom_frac         0.97314125        0.97772259        0.85802805  P
       atom_frac         0.75020146        0.54546100        0.43662584  P
       atom_frac         0.06099357        0.04490192        0.88985890  S
       atom_frac         0.14787234        0.02536745        0.33178678  S
       atom_frac         0.27789503        0.15926203        0.30419871  S
       atom_frac         0.45669907        0.37692037        0.34830916  S
       atom_frac         0.39614591        0.94333023        0.87710631  S
       atom_frac         0.31523943        0.47001791        0.29691631  S
       atom_frac         0.55032831        0.39588490        0.72614324  S
       atom_frac         0.23171994        0.07549851        0.71190137  S
       atom_frac         0.01892486        0.16143508        0.29994172  S
       atom_frac         0.06438560        0.27950063        0.31428754  S
       atom_frac         0.36414611        0.13427630        0.17427495  S
       atom_frac         0.38941407        0.18532574        0.62928921  S
       atom_frac         0.56559563        0.28411028        0.58417523  S
       atom_frac         0.30614817        0.23564748        0.54588968  S
       atom_frac         0.15730797        0.27543038        0.44472808  S
       atom_frac         0.15110488        0.35229144        0.68107623  S
       atom_frac         0.01972481        0.13480270        0.55917609  S
       atom_frac         0.11427675        0.28463209        0.87596118  S
       atom_frac         0.50111943        0.07359823        0.67417580  S
       atom_frac         0.71043009        0.06348798        0.15039288  S
       atom_frac         0.80545539        0.19342904        0.39519781  S
       atom_frac         0.96715248        0.42717174        0.58678555  S
       atom_frac         0.88696909        0.03288960        0.92059302  S
       atom_frac         0.81710410        0.46075964        0.38473105  S
       atom_frac         0.97811496        0.39239222        0.02382134  S
       atom_frac         0.68258017        0.07782777        0.58461064  S
       atom_frac         0.51989591        0.10315738        0.04879127  S
       atom_frac         0.51127577        0.22261812        0.01473198  S
       atom_frac         0.87099570        0.20435444        0.59872210  S
       atom_frac         0.82324278        0.24528992        0.85229033  S
       atom_frac         0.00795648        0.28809136        0.88314933  S
       atom_frac         0.75229102        0.32101029        0.79963642  S
       atom_frac         0.61376387        0.26628280        0.99911523  S
       atom_frac         0.63537002        0.35194319        0.21074723  S
       atom_frac         0.52519161        0.10222590        0.32082465  S
       atom_frac         0.65525335        0.30021062        0.43949297  S
       atom_frac         0.05468355        0.56284136        0.87076044  S
       atom_frac         0.14089645        0.46921787        0.24932162  S
       atom_frac         0.23729610        0.64167804        0.27181298  S
       atom_frac         0.45218286        0.89070141        0.45880401  S
       atom_frac         0.38191754        0.42442679        0.75226051  S
       atom_frac         0.30891171        0.96252012        0.36725581  S
       atom_frac         0.56786525        0.92507827        0.78831685  S
       atom_frac         0.21501027        0.54276282        0.63340110  S
       atom_frac         0.06487861        0.67609620        0.26765347  S
       atom_frac         0.08303476        0.80146778        0.32012582  S
       atom_frac         0.33679447        0.68132693        0.30559140  S
       atom_frac         0.35442594        0.69013292        0.58564472  S
       atom_frac         0.56202692        0.79833227        0.73536211  S
       atom_frac         0.28474411        0.76051283        0.71446902  S
       atom_frac         0.17384933        0.81383276        0.46921903  S
       atom_frac         0.15319405        0.88803619        0.70077026  S
       atom_frac         0.04534577        0.63890189        0.51818585  S
       atom_frac         0.12942885        0.81996775        0.90749264  S
       atom_frac         0.49140865        0.56040150        0.59243500  S
       atom_frac         0.66257560        0.53863454        0.29790941  S
       atom_frac         0.78818393        0.65911078        0.33886150  S
       atom_frac         0.96355605        0.91766405        0.60290396  S
       atom_frac         0.88398439        0.52714473        0.94439477  S
       atom_frac         0.82559448        0.98904890        0.41122484  S
       atom_frac         0.97308153        0.88431573        0.03893561  S
       atom_frac         0.72456777        0.55894709        0.70076180  S
       atom_frac         0.52835131        0.74836665        0.10984052  S
       atom_frac         0.58547097        0.85296518        0.19372079  S
       atom_frac         0.88866740        0.67335695        0.36754841  S
       atom_frac         0.90126395        0.71234667        0.65735739  S
       atom_frac         0.02460894        0.79225284        0.90629184  S
       atom_frac         0.82090020        0.77318174        0.75298297  S
       atom_frac         0.68337142        0.81381291        0.22937925  S
       atom_frac         0.70070612        0.85474420        0.49356455  S
       atom_frac         0.51538551        0.67305070        0.31106725  S
       atom_frac         0.66217273        0.77013695        0.65221858  S

  Number of empty states per atom not set in control.in - providing a guess from actual geometry.
  | Total number of empty states used during s.c.f. cycle:      276
  If you use a very high smearing, use empty_states (per atom!) in control.in to increase this value.

  Structure-dependent array size parameters: 
  | Maximum number of distinct radial functions  :       43
  | Maximum number of basis functions            :     3840
  | Number of Kohn-Sham states (occupied + empty):      948
------------------------------------------------------------

------------------------------------------------------------
          Preparing all fixed parts of the calculation.
------------------------------------------------------------
  Determining machine precision:
    2.225073858507201E-308
  Setting up grids for atomic and cluster calculations.

  Creating wave function, potential, and density for free atoms.

  Species: Li

  List of occupied orbitals and eigenvalues:
    n    l              occ      energy [Ha]    energy [eV]
    1    0           2.0000        -1.901473       -51.7417
    2    0           1.0000        -0.103132        -2.8064


  Species: P

  List of occupied orbitals and eigenvalues:
    n    l              occ      energy [Ha]    energy [eV]
    1    0           2.0000       -76.356288     -2077.7603
    2    0           2.0000        -6.358286      -173.0178
    3    0           2.0000        -0.509419       -13.8620
    2    1           6.0000        -4.573976      -124.4642
    3    1           3.0000        -0.201560        -5.4847


  Species: S

  List of occupied orbitals and eigenvalues:
    n    l              occ      energy [Ha]    energy [eV]
    1    0           2.0000       -88.108280     -2397.5483
    2    0           2.0000        -7.732485      -210.4116
    3    0           2.0000        -0.629532       -17.1304
    2    1           6.0000        -5.750324      -156.4743
    3    1           4.0000        -0.257562        -7.0086


  Species: Cl

  List of occupied orbitals and eigenvalues:
    n    l              occ      energy [Ha]    energy [eV]
    1    0           2.0000      -100.710795     -2740.4802
    2    0           2.0000        -9.222997      -250.9705
    3    0           2.0000        -0.754245       -20.5241
    2    1           6.0000        -7.039872      -191.5647
    3    1           5.0000        -0.316221        -8.6048

  Creating fixed part of basis set: Ionic, confined, hydrogenic.
 
  Li                   hydrogenic:
 
  List of hydrogenic basis orbitals: 
    n    l      effective z      eigenvalue [eV]  inner max. [A]     outer max. [A]     outer radius [A]   
    2    1         1.600000        -8.7048           1.319365           1.319365           6.386418
    2    0         2.000000       -13.6052           0.203259           1.385485           6.232164
    3    2         2.600000       -10.2084           1.835332           1.835332           6.386418
    3    1         4.600000       -31.9883           0.343834           1.385485           5.381805
    2    1         1.800000       -11.0199           1.181903           1.181903           6.386418
    3    0         6.200000       -58.1113           0.062858           1.111823           4.371906
    4    2         4.700000       -18.7772           0.761113           2.401695           6.386418
    4    3         4.100000       -14.2833           2.073992           2.073992           6.386418
 
 
  P                    ion:

  List of free ionic orbitals and eigenvalues:
    n    l      energy [Ha]    energy [eV]
    1    0       -77.297133     -2103.3620
    2    0        -7.273914      -197.9333
    3    0        -1.267536       -34.4914
    2    1        -5.491316      -149.4263
    3    1        -0.913470       -24.8568


  List of ionic basis orbitals and eigenvalues:
    n    l      energy [Ha]    energy [eV]    outer radius [A]
    3    2        -0.458060       -12.4644       5.404780
    3    1        -0.913461       -24.8565       4.724723
    3    0        -1.267529       -34.4912       4.232463

 
  P                    hydrogenic:
 
  List of hydrogenic basis orbitals: 
    n    l      effective z      eigenvalue [eV]  inner max. [A]     outer max. [A]     outer radius [A]   
    4    3         6.200000       -32.6870           1.357793           1.357793           5.339109
    5    4         8.600000       -40.2502           1.534356           1.534356           5.404780
    4    2         6.200000       -32.6848           0.577014           1.820771           5.404780
 
 
  S                    ion:

  List of free ionic orbitals and eigenvalues:
    n    l      energy [Ha]    energy [eV]
    1    0       -89.127201     -2425.2745
    2    0        -8.724378      -237.4024
    3    0        -1.464668       -39.8556
    2    1        -6.744348      -183.5230
    3    1        -1.048520       -28.5317


  List of ionic basis orbitals and eigenvalues:
    n    l      energy [Ha]    energy [eV]    outer radius [A]
    3    2        -0.496514       -13.5108       5.386362
    3    0        -1.464662       -39.8555       3.967934

 
  S                    hydrogenic:
 
  List of hydrogenic basis orbitals: 
    n    l      effective z      eigenvalue [eV]  inner max. [A]     outer max. [A]     outer radius [A]   
    2    1         1.800000       -11.0118           1.168531           1.168531           5.452614
    4    3         7.000000       -41.6672           1.212182           1.212182           5.066981
    4    2         6.200000       -32.6848           0.582121           1.814567           5.386362
    5    4        10.800000       -63.4785           1.227092           1.227092           4.766538
 
 
  Cl                   ion:

  List of free ionic orbitals and eigenvalues:
    n    l      energy [Ha]    energy [eV]
    1    0      -101.807232     -2770.3157
    2    0       -10.290876      -280.0290
    3    0        -1.664625       -45.2967
    2    1        -8.110237      -220.6908
    3    1        -1.183915       -32.2160


  List of ionic basis orbitals and eigenvalues:
    n    l      energy [Ha]    energy [eV]    outer radius [A]
    3    2        -0.529392       -14.4055       5.389057
    3    0        -1.664620       -45.2966       3.780461

 
  Cl                   hydrogenic:
 
  List of hydrogenic basis orbitals: 
    n    l      effective z      eigenvalue [eV]  inner max. [A]     outer max. [A]     outer radius [A]   
    2    1         1.900000       -12.2741           1.113321           1.113321           5.389057
    4    3         7.400000       -46.5653           1.140877           1.140877           4.886961
    5    4        10.400000       -58.8635           1.273568           1.273568           4.886961
    3    2         3.300000       -16.4532           1.439178           1.439178           5.455343
 

  Adding cutoff potential to free-atom effective potential.
  Creating atomic-like basis functions for current effective potential.

  Species Li                  :

  List of atomic basis orbitals and eigenvalues:
    n    l      energy [Ha]    energy [eV]    outer radius [A]
    1    0        -1.901473       -51.7417       4.318785
    2    0        -0.103132        -2.8064       6.464971


  Species P                   :

  List of atomic basis orbitals and eigenvalues:
    n    l      energy [Ha]    energy [eV]    outer radius [A]
    1    0       -76.356288     -2077.7603       0.736837
    2    0        -6.358286      -173.0178       2.532824
    3    0        -0.509419       -13.8620       5.274236
    2    1        -4.573976      -124.4642       2.862183
    3    1        -0.201560        -5.4847       5.404780


  Species S                   :

  List of atomic basis orbitals and eigenvalues:
    n    l      energy [Ha]    energy [eV]    outer radius [A]
    1    0       -88.108280     -2397.5483       0.682391
    2    0        -7.732485      -210.4116       2.317169
    3    0        -0.629532       -17.1304       5.256262
    2    1        -5.750324      -156.4743       2.555240
    3    1        -0.257562        -7.0086       5.386362


  Species Cl                  :

  List of atomic basis orbitals and eigenvalues:
    n    l      energy [Ha]    energy [eV]    outer radius [A]
    1    0      -100.710795     -2740.4802       0.642251
    2    0        -9.222997      -250.9705       2.128190
    3    0        -0.754245       -20.5241       5.194994
    2    1        -7.039872      -191.5647       2.346844
    3    1        -0.316221        -8.6048       5.323577

  Assembling full basis from fixed parts.
  | Species Li :   atomic orbital   1 s accepted.
  | Species Li :    hydro orbital   3 s accepted.
  | Species Li :    hydro orbital   2 s accepted.
  | Species Li :   atomic orbital   2 s accepted.
  | Species Li :    hydro orbital   3 p accepted.
  | Species Li :    hydro orbital   2 p accepted.
  | Species Li :    hydro orbital   2 p accepted.
  | Species Li :    hydro orbital   3 d accepted.
  | Species Li :    hydro orbital   4 d accepted.
  | Species Li :    hydro orbital   4 f accepted.
  | Species P :   atomic orbital   1 s accepted.
  | Species P :   atomic orbital   2 s accepted.
  | Species P :    ionic orbital   3 s accepted.
  | Species P :   atomic orbital   3 s accepted.
  | Species P :   atomic orbital   2 p accepted.
  | Species P :    ionic orbital   3 p accepted.
  | Species P :   atomic orbital   3 p accepted.
  | Species P :    ionic orbital   3 d accepted.
  | Species P :    hydro orbital   4 d accepted.
  | Species P :    hydro orbital   4 f accepted.
  | Species P :    hydro orbital   5 g accepted.
  | Species S :   atomic orbital   1 s accepted.
  | Species S :   atomic orbital   2 s accepted.
  | Species S :    ionic orbital   3 s accepted.
  | Species S :   atomic orbital   3 s accepted.
  | Species S :   atomic orbital   2 p accepted.
  | Species S :   atomic orbital   3 p accepted.
  | Species S :    hydro orbital   2 p accepted.
  | Species S :    ionic orbital   3 d accepted.
  | Species S :    hydro orbital   4 d accepted.
  | Species S :    hydro orbital   4 f accepted.
  | Species S :    hydro orbital   5 g accepted.
  | Species Cl :   atomic orbital   1 s accepted.
  | Species Cl :   atomic orbital   2 s accepted.
  | Species Cl :    ionic orbital   3 s accepted.
  | Species Cl :   atomic orbital   3 s accepted.
  | Species Cl :   atomic orbital   2 p accepted.
  | Species Cl :   atomic orbital   3 p accepted.
  | Species Cl :    hydro orbital   2 p accepted.
  | Species Cl :    ionic orbital   3 d accepted.
  | Species Cl :    hydro orbital   3 d accepted.
  | Species Cl :    hydro orbital   4 f accepted.
  | Species Cl :    hydro orbital   5 g accepted.
 
  Basis size parameters after reduction:
  | Total number of radial functions:       43
  | Total number of basis functions :     3840
 
  Per-task memory consumption for arrays in subroutine allocate_ext:
  |          11.342760MB.
  Testing on-site integration grid accuracy.
  |  Species  Function  <phi|h_atom|phi> (log., in eV)  <phi|h_atom|phi> (rad., in eV)
           1        1                -51.7417001117                -51.7417000312
           1        2                 33.5927188637                 33.5926505054
           1        3                 69.1469416012                 69.1473382425
           1        4                 48.8336153902                 48.8810182289 ***
           1        5                 17.1749490570                 17.1749098864
           1        6                 32.1201183828                 32.1217831653
           1        7                  6.0166019876                  6.0249480535
           1        8                  4.9175332206                  4.9194842525
           1        9                 28.8010599263                 28.8011051086
           1       10                  9.9331480983                  9.9353515081
           2       11              -2077.7602992527              -2077.7602630746
           2       12               -173.0177635265               -173.0177629291
           2       13                -13.5620523038                -13.5620521963
           2       14                  6.3015351439                  6.3015396353
           2       15               -124.4642131574               -124.4642129967
           2       16                 -4.8468074573                 -4.8468065719
           2       17                  5.8113348591                  5.8108493787
           2       18                  5.1218113540                  5.1217878152
           2       19                 22.1386653152                 22.1386624883
           2       20                 19.3047268689                 19.3047231214
           2       21                 30.3235883931                 30.3235836780
           3       22              -2397.5482725833              -2397.5482291499
           3       23               -210.4116306505               -210.4116300246
           3       24                -16.8591546483                -16.8591544436
           3       25                  7.5848976656                  7.5849001027
           3       26               -156.4742745766               -156.4742744285
           3       27                 -7.0089268331                 -7.0089287934
           3       28                  6.8790437028                  6.8789536772
           3       29                  6.0023049431                  6.0023019693
           3       30                 19.5634804122                 19.5634829634
           3       31                 24.6809503130                 24.6809503093
           3       32                 47.5107032033                 47.5107040524
           4       33              -2740.4801671239              -2740.4801157382
           4       34               -250.9705040601               -250.9705032686
           4       35                -20.2716828479                -20.2716826054
           4       36                  9.0161300765                  9.0161279813
           4       37               -191.5646602865               -191.5646600866
           4       38                 -8.6049187754                 -8.6049181478
           4       39                  7.6458046208                  7.6458222053
           4       40                  6.9765726558                  6.9765744583
           4       41                 16.6546700656                 16.6546956458
           4       42                 28.0343243807                 28.0343233726
           4       43                 45.0370063060                 45.0370052039
 * Note: Onsite integrals marked "***" above are less accurate than
 * onsite_accuracy_threshold =    0.03000 eV. Usually, this is harmless.
 * When in doubt, tighten the "radial" and/or "radial_multiplier" flags to check.

  Preparing densities etc. for the partition functions (integrals / Hartree potential).

  Preparations completed.
  max(cpu_time)          :      0.465 s.
  Wall clock time (cpu1) :      0.469 s.
------------------------------------------------------------

------------------------------------------------------------
          Begin self-consistency loop: Initialization.

          Date     :  20220704, Time     :  050358.020
------------------------------------------------------------

  Initializing index lists of integration centers etc. from given atomic structure:
  Mapping all atomic coordinates to central unit cell.

  Initializing the k-points
          Using symmetry for reducing the k-points
  | k-points reduced from:        2 to        2
  | Number of k-points                             :         2
  The eigenvectors in the calculations are REAL.
  | Number of basis functions in the Hamiltonian integrals :     19279
  | Number of basis functions in a single unit cell        :      3840
  | Number of centers in hartree potential         :      2798
  | Number of centers in hartree multipole         :      1843
  | Number of centers in electron density summation:      1500
  | Number of centers in basis integrals           :      1589
  | Number of centers in integrals                 :       644
  | Number of centers in hamiltonian               :      1833
  | Consuming          1 KiB for k_phase.
  | Number of super-cells (origin) [n_cells]                     :         175
  | Number of super-cells (after PM_index) [n_cells]             :          46
  | Number of super-cells in hamiltonian [n_cells_in_hamiltonian]:          46
  | Size of matrix packed + index [n_hamiltonian_matrix_size] :    14769288
  Using simple linear distribution as default method for k-point parallelism.
  * Using 20 tasks for Scalapack Eigenvalue solver.
  Detailed listing of tasks and assigned k-points:
   Task     0 k-point     1 on node042
   Task     1 k-point     1 on node042
   Task     2 k-point     1 on node042
   Task     3 k-point     1 on node042
   Task     4 k-point     1 on node042
   Task     5 k-point     1 on node042
   Task     6 k-point     1 on node042
   Task     7 k-point     1 on node042
   Task     8 k-point     1 on node042
   Task     9 k-point     1 on node042
   Task    10 k-point     2 on node042
   Task    11 k-point     2 on node042
   Task    12 k-point     2 on node042
   Task    13 k-point     2 on node042
   Task    14 k-point     2 on node042
   Task    15 k-point     2 on node042
   Task    16 k-point     2 on node042
   Task    17 k-point     2 on node042
   Task    18 k-point     2 on node042
   Task    19 k-point     2 on node042
  K-point:     1 Tasks:    10 split into      5 X      2 BLACS grid
  Calculating block size based on n_basis =         3840 max_nprow =            5 max_npcol =            2
  ScaLAPACK block size set to:           16
  Allocating       11.796 MB for ovlp
  Allocating       11.796 MB for ham
  Allocating       11.796 MB for eigenvec
  Required Scalapack workspace - INTEGER:            1 REAL:             1
  Partitioning the integration grid into batches with parallel hashing+maxmin method.
  | Number of batches:    27690
  | Maximal batch size:     136
  | Minimal batch size:      52
  | Average batch size:      84.221
  | Standard deviation of batch sizes:      23.079

  Integration load balanced across    20 MPI tasks.
  Work distribution over tasks is as follows:
  Task     0 has     116642 integration points.
  Task     1 has     116621 integration points.
  Task     2 has     116612 integration points.
  Task     3 has     116553 integration points.
  Task     4 has     116622 integration points.
  Task     5 has     116613 integration points.
  Task     6 has     116642 integration points.
  Task     7 has     116544 integration points.
  Task     8 has     116629 integration points.
  Task     9 has     116601 integration points.
  Task    10 has     116600 integration points.
  Task    11 has     116629 integration points.
  Task    12 has     116549 integration points.
  Task    13 has     116617 integration points.
  Task    14 has     116557 integration points.
  Task    15 has     116615 integration points.
  Task    16 has     116614 integration points.
  Task    17 has     116548 integration points.
  Task    18 has     116622 integration points.
  Task    19 has     116650 integration points.
  Initializing partition tables, free-atom densities, potentials, etc. across the integration grid (initialize_grid_storage).
  | initialize_grid_storage: Actual outermost partition radius vs. multipole_radius_free
  | (-- VB: in principle, multipole_radius_free should be larger, hence this output)
  | Species        1: Confinement radius =              7.000000000000000 AA, multipole_radius_free =              7.042572113910259 AA.
  | Species        1: outer_partition_radius set to              7.042572113910259 AA .
  | Species        2: Confinement radius =              6.000000000000000 AA, multipole_radius_free =              6.033387558927091 AA.
  | Species        2: outer_partition_radius set to              6.033387558927091 AA .
  | Species        3: Confinement radius =              6.000000000000000 AA, multipole_radius_free =              6.012827091137924 AA.
  | Species        3: outer_partition_radius set to              6.012827091137924 AA .
  | Species        4: Confinement radius =              6.000000000000000 AA, multipole_radius_free =              6.015836048499353 AA.
  | Species        4: outer_partition_radius set to              6.015836048499353 AA .
  | Original list of interatomic distances with        1589 x       1589 entries is created.
  | Net number of integration points:  2332080
  | of which are non-zero points    :  1903728
  | Numerical average free-atom electrostatic potential    :     -9.26743972 eV
  Renormalizing the initial density to the exact electron count on the 3D integration grid.
  | Initial density: Formal number of electrons (from input files) :    1344.0000000000
  | Integrated number of electrons on 3D grid     :    1344.0001019578
[...]
  | Total energy evaluation                    :        0.003 s           0.006 s

  Partial memory accounting:
  | Current value for overall tracked memory usage on task 0  :         222.103 MB
  | Peak value for overall tracked memory usage on task 0     :         458.411 MB after allocating temp_ham_ovlp
  | Largest tracked array allocation on task 0 so far         :         118.154 MB  when allocating overlap_matrix
  Note:  These values currently only include a subset of arrays which are explicitly tracked.
  The "true" memory usage will be greater.
------------------------------------------------------------
  |------------------------------------------
  | Final ELSI Output
  |------------------------------------------
  | Number of basis functions :         3840
  | Number of electrons       :       1344.0
  | Number of spins           :            1
  | Number of k-points        :            2
  | Number of states          :          948
  | Solver                    :         ELPA
  | Parallel mode             :   MULTI_PROC
  | Matrix format             :  BLACS_DENSE
  | Matrix sparsity           :        0.186
  |------------------------------------------
  | ELSI Project (c)  elsi-interchange.org
  |------------------------------------------
  Removing unitary transformations (pure translations, rotations) from forces on atoms.
  Atomic forces before filtering:
  | Net force on center of mass :   0.580579E-03 -0.155068E-02  0.337387E-02 eV/A
  Atomic forces after filtering:
  | Net force on center of mass :  -0.892031E-16 -0.446015E-15  0.267609E-15 eV/A

  Energy and forces in a compact form:
  | Total energy uncorrected      :         -0.859139638057795E+06 eV
  | Total energy corrected        :         -0.859139638057795E+06 eV  <-- do not rely on this value for anything but (periodic) metals
  | Electronic free energy        :         -0.859139638057795E+06 eV
  Total atomic forces (unitary forces cleaned) [eV/Ang]:
  |   1         -0.185166316814522E+00         -0.370481057407412E-01          0.337121542682848E-02
  |   2          0.617568602538691E-01         -0.886347312383573E-02          0.264596214547216E-01
  |   3          0.280195629286588E-02          0.566290761315295E-01         -0.226713572509971E-02
  |   4         -0.829901298849626E-01         -0.561482156961006E-01          0.344841099092591E-01
  |   5          0.511947446110499E-01         -0.207229372726352E+00          0.194470265485598E-01
  |   6          0.247260059744814E+00         -0.241593665616498E+00          0.335030409198874E+00
  |   7         -0.207259922799784E+00          0.980726540227848E-01         -0.318091530803569E+00
  |   8          0.104318542745434E+00         -0.475360299153868E-01          0.440521425130313E-02
  |   9         -0.496076398465616E-01         -0.265843968025772E-01         -0.192538099883587E-01
  |  10          0.122062770098706E+00         -0.691282054508795E-01         -0.123337545711650E-01
  |  11         -0.642401070322829E-01         -0.140820296240400E-01         -0.244398639070896E+00
  |  12          0.441946547740742E-01          0.312916307717298E-01          0.130168287664473E+00
  |  13          0.756441071823287E-01         -0.297944329480498E-01         -0.232743284679487E-01
  |  14         -0.263706532792475E-01          0.647109920835357E-01          0.906579211472166E-01
  |  15          0.685745924505708E-01         -0.313315412932569E+00         -0.871632209251971E-01
  |  16         -0.203830770899999E+00          0.204370885426573E+00         -0.638511842946330E-01
  |  17          0.374263470037553E-02         -0.914906706802083E-02          0.280207448385369E-01
  |  18          0.124915673628525E+00         -0.859115524989259E-01          0.340237104714613E+00
  |  19         -0.627414807597011E-01         -0.153156110116422E-01         -0.643665221064686E-01
  |  20          0.216570055867543E+00         -0.101847865915046E+00          0.192022478261457E+00
  |  21         -0.560784226431256E-01         -0.837185783468206E-01         -0.195846951772385E-01
  |  22         -0.266087212992151E+00          0.535098127028904E-01         -0.152831698750874E+00
  |  23         -0.528233598184123E-01          0.312310885902285E-01         -0.883067385529411E-01
  |  24          0.154367554503076E+00          0.478135713183375E-01          0.906952974888943E-01
  |  25         -0.457148883736152E+00         -0.100899822002885E+00         -0.648660313660938E+00
  |  26         -0.462912914629893E+00          0.107607484856360E+00          0.436011322371735E+00
  |  27          0.784334726152409E+00          0.801085556994595E+00         -0.811784333280256E+00
  |  28         -0.864631584045692E+00          0.912728775893152E+00          0.590490677100278E-01
  |  29         -0.338005149556773E+00         -0.210576638290856E+00         -0.569639886182720E+00
  |  30         -0.922302535138659E+00         -0.573453941679355E+00          0.547278862485773E-01
  |  31          0.950709457952623E+00          0.599116978668085E+00         -0.818272020986951E+00
  |  32         -0.335725478890638E+00         -0.184010222781700E+00          0.406902665579290E+00
  |  33         -0.120997413462835E+01         -0.106449636051402E+01         -0.272158287950649E+00
  |  34          0.655937900299810E+00          0.372231403082066E+00          0.415069704317315E+00
  |  35          0.112908965617214E+00          0.564662869829877E+00         -0.213910305988396E+00
  |  36         -0.383927537195489E-01          0.126814818465555E+01          0.115662745770241E+01
  |  37          0.249150225576408E+00         -0.788808557705395E-01         -0.547228665607806E+00
  |  38         -0.152127733147562E+00          0.431169464005548E+00         -0.957672440263744E-01
  |  39          0.347975817026109E+00         -0.125854778087968E+01         -0.645385829487366E+00
  |  40          0.289413126941415E+00         -0.694487734774777E+00         -0.996583556204297E+00
  |  41          0.502654524125778E+00          0.123388605576956E+01         -0.250419306487835E+00
  |  42         -0.175341674947160E+00         -0.153793127951984E+00         -0.335514962455741E+00
  |  43         -0.531938465410433E+00          0.291392803848000E+00          0.380472022511476E+00
  |  44          0.881308218106603E+00         -0.463278851938544E+00          0.286499893182508E+00
  |  45          0.459529038776894E+00          0.603104767042239E+00          0.731110166065823E+00
  |  46         -0.108779386369528E+01          0.104214559979030E+00         -0.896957730738875E+00
  |  47         -0.250911909477233E+00          0.124044116980090E+00          0.478491624010337E+00
  |  48         -0.120014762542242E+00         -0.412149862247234E+00         -0.948136164556080E+00
  |  49         -0.276920771602169E-03         -0.408951020759724E+00          0.560385431342351E+00
  |  50         -0.181973482966201E+00         -0.344039877469554E+00          0.379246090960286E+00
  |  51         -0.716376746455484E-01         -0.562332487913101E+00         -0.114786398756317E-01
  |  52         -0.112019582022836E-01          0.557671991058380E+00          0.456598327331282E+00
  |  53         -0.174717696234968E+00          0.365786390645561E-01         -0.136733936175014E+00
  |  54          0.319270218430575E+00          0.928257955073117E+00          0.122520689614292E+01
  |  55         -0.605370921123447E-01         -0.740265297128531E-01         -0.360930335650709E+00
  |  56          0.161861295073043E+00         -0.830692675693363E-01          0.286327150057135E+00
  |  57          0.252855023309396E+00         -0.147630451990561E+01         -0.213335081210215E+00
  |  58          0.500253836895274E+00         -0.936546412837281E-01         -0.129886517057421E+00
  |  59          0.115213756682081E+00          0.101372666453357E-01          0.306962432861359E+00
  |  60          0.391343280026113E+00          0.757537507628705E+00         -0.529253153901687E+00
  |  61         -0.515529800767493E+00         -0.942119088557879E-01         -0.798292155256582E-01
  |  62          0.123744431932438E+01         -0.140505525113673E+01          0.850331622338741E-01
  |  63          0.212033193319195E+00          0.657322386719189E+00          0.684706497550627E+00
  |  64         -0.119194302435640E+01          0.111276616858362E+01         -0.329311062930231E+00
  |  65         -0.248806798470456E+00          0.315083941620565E+00          0.863547906938590E+00
  |  66         -0.321886415204445E+00         -0.155820150249822E+00         -0.144518315027586E+01
  |  67          0.462170686190416E-01         -0.237977606715411E+00         -0.102681038238708E-01
  |  68         -0.228252163276517E+00         -0.446666417105468E+00          0.640069396083297E+00
  |  69         -0.139303958381129E+01         -0.120557130352441E+01         -0.340811132257183E+00
  |  70          0.131408605672194E+01          0.958718979771247E+00          0.917207325428450E+00
  |  71          0.198685804605308E+00          0.906051154760374E+00         -0.486481614079925E+00
  |  72          0.323284450129596E+00          0.138151906045410E+01          0.130492359668868E+01
  |  73          0.462261924885719E+00         -0.349817138879929E+00         -0.406247738697933E+00
  |  74         -0.150510700628592E+00          0.374878818333526E+00          0.233044676800137E+00
  |  75         -0.338516127346282E+00         -0.924554144453928E+00         -0.525873658284852E+00
  |  76          0.695562474706896E-01         -0.573965358700718E+00         -0.618777480766506E+00
  |  77          0.413520836204549E+00          0.121073386290408E+01          0.886513501105911E-01
  |  78          0.116128652552093E-01         -0.164401855815859E+00         -0.249538556396322E+00
  |  79         -0.674165285209432E+00         -0.201566950136009E+00          0.246545314418145E+00
  |  80         -0.274136887918830E+00          0.906730928536127E-01          0.244336202566322E+00
  |  81          0.611135799510385E+00          0.309637346826857E+00          0.392673820317672E-01
  |  82          0.554430258768989E+00         -0.419299454185499E+00         -0.407954542488076E+00
  |  83         -0.449583084781807E+00         -0.568541698531409E-01          0.201482392812351E+00
  |  84         -0.704626722986998E-01         -0.172522980169661E+00         -0.105324179660998E+01
  |  85         -0.137575453411785E+00         -0.367772965963116E+00          0.431316698149407E+00
  |  86         -0.381842015807780E+00         -0.565533973006987E+00          0.396063083277344E+00
  |  87         -0.467645147623213E+00         -0.820382782420682E+00         -0.168422006559756E+00
  |  88          0.272489295907292E+00          0.334239122950643E+00          0.176775154242482E+00
  |  89          0.250325731112954E-01          0.523858405991417E+00         -0.330850138921393E+00
  |  90          0.194288910855320E+00          0.115370906066638E+01          0.101570976222899E+01
  |  91          0.228737232305235E+00         -0.355194935052407E+00         -0.211367806176964E+00
  |  92          0.103889989129018E+01         -0.776087927864530E+00          0.475345368068154E+00
  |  93          0.284592445061253E+00         -0.127278789191119E+01          0.346789570833722E-01
  |  94          0.183109439252058E+00         -0.201304398473604E+00         -0.604787372817992E+00
  |  95          0.861983955127951E+00          0.145650914704412E+01         -0.359442015491040E+00
  |  96         -0.551459128465703E+00         -0.637038849360997E+00         -0.499240393679269E+00
  |  97         -0.482633514917820E+00          0.843227894409965E-01          0.448773928884223E+00
  |  98         -0.497444064547893E-02          0.207478079523636E-01         -0.268614512021812E+00
  |  99          0.340833381452166E+00          0.523540677752979E+00          0.601272061179751E+00
  | 100          0.249704974954025E+00         -0.113073863290862E+00         -0.143509720393220E+00
  | 101         -0.350097687999857E-01          0.297681460215323E+00          0.382155957648855E+00
  | 102         -0.222372613624556E+00         -0.169390043307950E+00         -0.834882741256671E+00
  | 103         -0.317795843636046E+00         -0.527547516630846E+00          0.963574543884029E+00
  | 104         -0.223161385704829E+00         -0.204579981034729E+00          0.513226001764849E+00

  ------------------------------------ 
  Start decomposition of the XC Energy 
  ------------------------------------ 
  X and C from original XC functional choice 
  Hartree-Fock Energy :          0.000000000 Ha              0.000000000 eV
  X Energy            :      -2017.730922727 Ha         -54905.251955851 eV
  C Energy            :        -51.938326444 Ha          -1413.313771163 eV
  Total XC Energy     :      -2069.669249171 Ha         -56318.565727014 eV
  ------------------------------------ 
  LDA X and C from self-consistent density 
  X Energy LDA        :      -1869.643399511 Ha         -50875.585421991 eV
  C Energy LDA        :       -103.169038975 Ha          -2807.372388038 eV
  ------------------------------------ 
  End decomposition of the XC Energy 
  ------------------------------------ 

------------------------------------------------------------

------------------------------------------------------------------------------
  Final output of selected total energy values:

  The following output summarizes some interesting total energy values
  at the end of a run (AFTER all relaxation, molecular dynamics, etc.).

  | Total energy of the DFT / Hartree-Fock s.c.f. calculation      :        -859139.638057795 eV
  | Final zero-broadening corrected energy (caution - metals only) :        -859139.638057795 eV
  | For reference only, the value of 1 Hartree used in FHI-aims is :             27.211384500 eV

  Before relying on these values, please be sure to understand exactly which
  total energy value is referred to by a given number. Different objects may
  all carry the same name 'total energy'. Definitions:

  Total energy of the DFT / Hartree-Fock s.c.f. calculation:
  | Note that this energy does not include ANY quantities calculated after the
  | s.c.f. cycle, in particular not ANY RPA, MP2, etc. many-body perturbation terms.

  Final zero-broadening corrected energy:
  | For metallic systems only, a broadening of the occupation numbers at the Fermi
  | level can be extrapolated back to zero broadening by an electron-gas inspired
  | formula. For all systems that are not real metals, this value can be
  | meaningless and should be avoided.

------------------------------------------------------------------------------
  Methods described in the following list of references were used in this FHI-aims run.
  If you publish the results, please make sure to cite these reference if they apply.
  FHI-aims is an academic code, and for our developers (often, Ph.D. students
  and postdocs), scientific credit in the community is essential.
  Thank you for helping us!

  For any use of FHI-aims, please cite:

    Volker Blum, Ralf Gehrke, Felix Hanke, Paula Havu, Ville Havu,
    Xinguo Ren, Karsten Reuter, and Matthias Scheffler
    'Ab initio molecular simulations with numeric atom-centered orbitals'
    Computer Physics Communications 180, 2175-2196 (2009)
    http://dx.doi.org/10.1016/j.cpc.2009.06.022


  The provided symmetry information was generated with SPGlib:

    Atsushi Togo, Yusuke Seto, Dimitar Pashov
    SPGlib 1.7.3 obtained from http://spglib.sourceforge.net
    Copyright (C) 2008 Atsushi Togo


  The scalable eigensolver library ELPA was used in your run.
  ELPA is essential especially for large systems on hundreds or thousands of CPUs.
  For ELPA, please cite:

    Andreas Marek, Volker Blum, Rainer Johanni, Ville Havu, Bruno Lang,
    Thomas Auckenthaler, Alexander Heinecke, Hans-Joachim Bungartz, and Hermann Lederer,
    'The ELPA Library - Scalable Parallel Eigenvalue Solutions
    for Electronic Structure Theory and Computational Science'
    The Journal of Physics: Condensed Matter 26, 213201 (2014).
    http://dx.doi.org/10.1088/0953-8984/26/21/213201


  The ELSI infrastructure was used in your run to solve the Kohn-Sham electronic structure.
  Please check out http://elsi-interchange.org to learn more.
  If scalability is important for your project, please acknowledge ELSI by citing:

    V. W-z. Yu, F. Corsetti, A. Garcia, W. P. Huhn, M. Jacquelin, W. Jia,
    B. Lange, L. Lin, J. Lu, W. Mi, A. Seifitokaldani, A. Vazquez-Mayagoitia,
    C. Yang, H. Yang, and V. Blum
    'ELSI: A unified software interface for Kohn-Sham electronic structure solvers'
    Computer Physics Communications 222, 267-285 (2018).
    http://dx.doi.org/10.1016/j.cpc.2017.09.007


  For the real-space grid partitioning and parallelization used in this calculation, please cite:

    Ville Havu, Volker Blum, Paula Havu, and Matthias Scheffler,
    'Efficient O(N) integration for all-electron electronic structure calculation'
    'using numerically tabulated basis functions'
    Journal of Computational Physics 228, 8367-8379 (2009).
    http://dx.doi.org/10.1016/j.jcp.2009.08.008

  Of course, there are many other important community references, e.g., those cited in the
  above references. Our list is limited to references that describe implementations in the
  FHI-aims code. The reason is purely practical (length of this list) - please credit others as well.

------------------------------------------------------------
          Leaving FHI-aims.
          Date     :  20220704, Time     :  055512.583

          Computational steps:
          | Number of self-consistency cycles          :           22
          | Number of SCF (re)initializations          :            1

          Detailed time accounting                     :  max(cpu_time)    wall_clock(cpu1)
          | Total time                                 :     3074.883 s        3075.130 s
          | Preparation time                           :        0.465 s           0.469 s
          | Boundary condition initalization           :        0.857 s           0.857 s
          | Grid partitioning                          :        3.952 s           3.952 s
          | Preloading free-atom quantities on grid    :        0.036 s           0.034 s
          | Free-atom superposition energy             :        1.576 s           1.576 s
          | Total time for integrations                :      640.389 s         640.370 s
          | Total time for solution of K.-S. equations :       56.857 s          56.850 s
          | Total time for density & force components  :     1716.730 s        1716.646 s
          | Total time for mixing & preconditioning    :      239.737 s         239.876 s
          | Total time for Hartree multipole update    :        0.625 s           0.627 s
          | Total time for Hartree multipole sum       :      403.973 s         403.968 s
          | Total time for total energy evaluation     :        0.010 s           0.027 s

          Partial memory accounting:
          | Residual value for overall tracked memory usage across tasks :           0.000 MB (should be 0.000 MB)
          | Peak values for overall tracked memory usage (after allocating temp_ham_ovlp):
          |   Minimum:      458.411 MB (on task  1)
          |   Maximum:      458.411 MB (on task  1)
          |   Average:      458.411 MB
          | Largest tracked array allocation (overlap_matrix):
          |   Minimum:      118.154 MB (on task  1)
          |   Maximum:      118.154 MB (on task  1)
          |   Average:      118.154 MB
          Note:  These values currently only include a subset of arrays which are explicitly tracked.
          The "true" memory usage will be greater.

          Have a nice day.
------------------------------------------------------------
