  MPI-parallelism will be employed.
------------------------------------------------------------
          Invoking FHI-aims ...
          Version 171221_1
          Compiled on 2020/09/23 at 19:46:43 on host login.service.

          When using FHI-aims, please cite the following reference:

          Volker Blum, Ralf Gehrke, Felix Hanke, Paula Havu,
          Ville Havu, Xinguo Ren, Karsten Reuter, and Matthias Scheffler,
          'Ab Initio Molecular Simulations with Numeric Atom-Centered Orbitals',
          Computer Physics Communications 180, 2175-2196 (2009)

          For any questions about FHI-aims, please visit the aimsclub website
          with its forums and wiki. Contributions to both the forums and the
          wiki are warmly encouraged - they are for you, and everyone is welcome there.

------------------------------------------------------------



  Date     :  20220704, Time     :  083316.116
  Time zero on CPU 1             :   0.798220000000000E-01  s.
  Internal wall clock time zero  :           426155596.116  s.

  FHI-aims created a unique identifier for this run for later identification
  aims_uuid : D962EC07-7019-44F2-A273-DA724C5C1E37

  Using       20 parallel tasks.
  Task        0 on host node047 reporting.
  Task        1 on host node047 reporting.
  Task        2 on host node047 reporting.
  Task        3 on host node047 reporting.
  Task        4 on host node047 reporting.
  Task        5 on host node047 reporting.
  Task        6 on host node047 reporting.
  Task        7 on host node047 reporting.
  Task        8 on host node047 reporting.
  Task        9 on host node047 reporting.
  Task       10 on host node047 reporting.
  Task       11 on host node047 reporting.
  Task       12 on host node047 reporting.
  Task       13 on host node047 reporting.
  Task       14 on host node047 reporting.
  Task       15 on host node047 reporting.
  Task       16 on host node047 reporting.
  Task       17 on host node047 reporting.
  Task       18 on host node047 reporting.
  Task       19 on host node047 reporting.

  Performing system and environment tests:
  *** Environment variable OMP_NUM_THREADS is not set
  *** For performance reasons you might want to set it to 1
  | Maximum stacksize for task 0: unlimited
  | Maximum stacksize for task 1: unlimited
  | Maximum stacksize for task 2: unlimited
  | Maximum stacksize for task 3: unlimited
  | Maximum stacksize for task 4: unlimited
  | Maximum stacksize for task 5: unlimited
  | Maximum stacksize for task 6: unlimited
  | Maximum stacksize for task 7: unlimited
  | Maximum stacksize for task 8: unlimited
  | Maximum stacksize for task 9: unlimited
  | Maximum stacksize for task 10: unlimited
  | Maximum stacksize for task 11: unlimited
  | Maximum stacksize for task 12: unlimited
  | Maximum stacksize for task 13: unlimited
  | Maximum stacksize for task 14: unlimited
  | Maximum stacksize for task 15: unlimited
  | Maximum stacksize for task 16: unlimited
  | Maximum stacksize for task 17: unlimited
  | Maximum stacksize for task 18: unlimited
  | Maximum stacksize for task 19: unlimited
  | Current stacksize for task 0: unlimited
  | Current stacksize for task 1: unlimited
  | Current stacksize for task 2: unlimited
  | Current stacksize for task 3: unlimited
  | Current stacksize for task 4: unlimited
  | Current stacksize for task 5: unlimited
  | Current stacksize for task 6: unlimited
  | Current stacksize for task 7: unlimited
  | Current stacksize for task 8: unlimited
  | Current stacksize for task 9: unlimited
  | Current stacksize for task 10: unlimited
  | Current stacksize for task 11: unlimited
  | Current stacksize for task 12: unlimited
  | Current stacksize for task 13: unlimited
  | Current stacksize for task 14: unlimited
  | Current stacksize for task 15: unlimited
  | Current stacksize for task 16: unlimited
  | Current stacksize for task 17: unlimited
  | Current stacksize for task 18: unlimited
  | Current stacksize for task 19: unlimited
  | Checking for scalapack...
  | Testing pdtran()...
  | All pdtran() tests passed.

  Obtaining array dimensions for all initial allocations:
  
  -----------------------------------------------------------------------
  Parsing control.in (first pass over file, find array dimensions only).
  The contents of control.in will be repeated verbatim below
  unless switched off by setting 'verbatim_writeout .false.' .
  in the first line of control.in .
  -----------------------------------------------------------------------
  
  #===============================================================================
  # FHI-aims file: ./control.in
  # Created using the Atomic Simulation Environment (ASE)
  # Wed Mar 24 12:41:28 2021
  #===============================================================================
  xc                                 pbe
  sc_accuracy_etot                   1e-06
  sc_accuracy_eev                    0.001
  sc_accuracy_rho                    1e-06
  sc_accuracy_forces                 0.0001
  friction_temperature               300  # default 300
  
    k_grid                           1  2  2
  
  
  
  ################################################################################
  #
  #  FHI-aims code project
  # Volker Blum, Fritz Haber Institute Berlin, 2009
  #
  #  Suggested "tight" defaults for Li atom (to be pasted into control.in file)
  #
  #  2016/03/22: Increased cutoff radius to 5.0 AA (Xinguo Ren, Aug 15, 2015)
  #
  ################################################################################
    species        Li
  #     global species definitions
      nucleus             3
      mass                6.941
  #
      l_hartree           6
  #
      cut_pot             5.0  2.0  1.0
      basis_dep_cutoff    1e-4
  #
      radial_base         29 7.0
      radial_multiplier   2
      angular_grids       specified
        division   0.4484  110
        division   0.5659  194
        division   0.6315  302
        division   0.6662  434
  #      division   0.8186  590
  #      division   0.9037  770
  #      division   6.2760  974
  #      outer_grid   974
        outer_grid  434
  ################################################################################
  #
  #  Definition of "minimal" basis
  #
  ################################################################################
  #     valence basis states
      valence      2  s   1.
  #     ion occupancy
      ion_occ      1  s   2.
  ################################################################################
  #
  #  Suggested additional basis functions. For production calculations,
  #  uncomment them one after another (the most important basis functions are
  #  listed first).
  #
  #  Constructed for dimers: 1.80 A, 2.25 A, 2.75 A, 3.50 A, 4.50 A
  #
  ################################################################################
  #  "First tier" - improvements: -189.23 meV to -6.35 meV
       hydro 2 p 1.6
       hydro 2 s 2
       hydro 3 d 2.6
  #  "Second tier" - improvements: -4.69 meV to -0.41 meV
       hydro 3 p 4.6
       hydro 2 p 1.8
       hydro 3 s 6.2
       hydro 4 d 4.7
       hydro 4 f 4.1
  #  "Third tier" - improvements: -0.20 meV to -0.15 meV
  #     hydro 4 d 0.95
  #     hydro 3 p 6.2
  #     hydro 3 s 1.7
  #  Further functions, listed for completeness
  #     VB: The following functions are only listed for completeness; test very
  #         carefully before any kind of production use. From the point of view
  #         of the basis construction, their main role is to fill up space,
  #         and they are solely determined by the location of the cutoff potential.
  #     hydro 3 p 0.1  # -0.15 meV
  #     hydro 4 d 5    # -0.12 meV
  #     hydro 4 f 0.1  # -0.14 meV
  #     hydro 5 g 0.1  # -0.06 meV
  
  
  ################################################################################
  #
  # For methods that use the localized form of the "resolution of identity" for
  # the two-electron Coulomb operator (RI_method LVL), particularly Hartree-Fock and
  # hybrid density functional calculations, the highest accuracy can be obtained by
  # uncommenting the line beginning with "for_aux"  below, thus adding an extra g radial
  # function to the construction of the product basis set for the expansion.
  # See Ref. New J. Phys. 17, 093020 (2015) for more information, particularly Figs. 1 and 6.
  #
  ################################################################################
  #
  # for_aux hydro 5 g 6.0
  ################################################################################
  #
  #  FHI-aims code project
  # Volker Blum, Fritz Haber Institute Berlin, 2010
  #
  #  Suggested "tight" defaults for P atom (to be pasted into control.in file)
  #
  #  Revised Jan 04, 2011, following tests (SiC) done by Lydia Nemec:
  #     d function of tier 2 now enabled by default.
  #
  ################################################################################
    species        P
  #     global species definitions
      nucleus             15
      mass                30.973762
  #
      l_hartree           6
  #
      cut_pot             4.0          2.0  1.0
      basis_dep_cutoff    1e-4
  #
      radial_base         43 7.0
      radial_multiplier   2
      angular_grids       specified
        division   0.2995   50
        division   0.5998  110
        division   0.9240  194
        division   1.0921  302
        division   1.2863  434
  #      division   1.3165  590
  #      division   1.4113  770
  #      division   1.5128  974
  #      division   2.4980 1202
        outer_grid  434
  ################################################################################
  #
  #  Definition of "minimal" basis
  #
  ################################################################################
  #     valence basis states
      valence      3  s   2.
      valence      3  p   3.
  #     ion occupancy
      ion_occ      3  s   1.
      ion_occ      3  p   2.
  ################################################################################
  #
  #  Suggested additional basis functions. For production calculations,
  #  uncomment them one after another (the most important basis functions are
  #  listed first).
  #
  #  Constructed for dimers: 1.625 A, 1.875 A, 2.5 A, 3.25 A, 4.0 A
  #
  ################################################################################
  #  "First tier" - improvements: -726.20 meV to -35.91 meV
       ionic 3 d auto
       ionic 3 p auto
       hydro 4 f 6.2
       hydro 5 g 8.6
       ionic 3 s auto
  #  "Second tier" - improvements: -16.02 meV to -1.71 meV
       hydro 4 d 6.2
  #     hydro 4 p 9.2
  #     hydro 5 f 9.8
  #     hydro 1 s 0.7
  #     hydro 5 g 13.2
  #  "Third tier" - improvements: -1.82 meV to -0.20 meV
  #     hydro 3 p 2.5
  #     hydro 4 d 6.4
  #     hydro 5 f 11.2
  #     hydro 2 s 1.5
  #  "Fourth tier" - improvements: -0.91 meV to -0.17 meV
  #     hydro 3 d 16.8
  #     hydro 5 g 18
  #     hydro 4 p 4.5
  #     hydro 3 s 2.1
  #  Further basis functions that fell out of the optimization - < -0.09 meV
  #     hydro 4 p 10.4
  #     hydro 4 d 17.6
  #     hydro 4 s 11.2
  ################################################################################
  #
  # For methods that use the localized form of the "resolution of identity" for
  # the two-electron Coulomb operator (RI_method LVL), particularly Hartree-Fock and
  # hybrid density functional calculations, the highest accuracy can be obtained by
  # uncommenting the line beginning with "for_aux"  below, thus adding an extra g radial
  # function to the construction of the product basis set for the expansion.
  # See Ref. New J. Phys. 17, 093020 (2015) for more information, particularly Figs. 1 and 6.
  #
  ################################################################################
  #
  # for_aux hydro 5 g 6.0
  ################################################################################
  #
  #  FHI-aims code project
  # Volker Blum, Fritz Haber Institute Berlin, 2009
  #
  #  Suggested "tight" defaults for S atom (to be pasted into control.in file)
  #
  #  Revised Jan 04, 2011, following tests (SiC) done by Lydia Nemec:
  #     d and g functions of tier 2 now enabled by default.
  #
  ################################################################################
    species        S
  #     global species definitions
      nucleus             16
      mass                32.065
  #
      l_hartree           6
  #
      cut_pot             4.0          2.0  1.0
      basis_dep_cutoff    1e-4
  #
      radial_base         44 7.0
      radial_multiplier   2
      angular_grids       specified
        division   0.4665  110
        division   0.5810  194
        division   0.7139  302
        division   0.8274  434
  #      division   0.9105  590
  #      division   1.0975  770
  #      division   1.2028  974
  #      outer_grid  974
        outer_grid  434
  ################################################################################
  #
  #  Definition of "minimal" basis
  #
  ################################################################################
  #     valence basis states
      valence      3  s   2.
      valence      3  p   4.
  #     ion occupancy
      ion_occ      3  s   1.
      ion_occ      3  p   3.
  ################################################################################
  #
  #  Suggested additional basis functions. For production calculations,
  #  uncomment them one after another (the most important basis functions are
  #  listed first).
  #
  #  Constructed for dimers: 1.6 A, 1.9 A, 2.5 A, 3.25 A, 4.0 A
  #
  ################################################################################
  #  "First tier" - improvements: -652.81 meV to -45.53 meV
       ionic 3 d auto
       hydro 2 p 1.8
       hydro 4 f 7
       ionic 3 s auto
  #  "Second tier" - improvements: -30.20 meV to -1.74 meV
       hydro 4 d 6.2
       hydro 5 g 10.8
  #     hydro 4 p 4.9
  #     hydro 5 f 10
  #     hydro 1 s 0.8
  #  "Third tier" - improvements: -1.04 meV to -0.20 meV
  #     hydro 3 d 3.9
  #     hydro 3 d 2.7
  #     hydro 5 g 12
  #     hydro 4 p 10.4
  #     hydro 5 f 12.4
  #     hydro 2 s 1.9
  #  "Fourth tier" - improvements: -0.35 meV to -0.06 meV
  #     hydro 4 d 10.4
  #     hydro 4 p 7.2
  #     hydro 4 d 10
  #     hydro 5 g 19.2
  #     hydro 4 s 12
  
  ################################################################################
  #
  # For methods that use the localized form of the "resolution of identity" for
  # the two-electron Coulomb operator (RI_method LVL), particularly Hartree-Fock and
  # hybrid density functional calculations, the highest accuracy can be obtained by
  # uncommenting the line beginning with "for_aux"  below, thus adding an extra g radial
  # function to the construction of the product basis set for the expansion.
  # See Ref. New J. Phys. 17, 093020 (2015) for more information, particularly Figs. 1 and 6.
  #
  ################################################################################
  #
  # for_aux hydro 5 g 6.0
  ################################################################################
  #
  #  FHI-aims code project
  # Volker Blum, Fritz Haber Institute Berlin, 2009
  #
  #  Suggested "tight" defaults for Cl atom (to be pasted into control.in file)
  #
  #  Revised Jan 04, 2011, following tests (SiC) done by Lydia Nemec:
  #     d function of tier 2 now enabled by default.
  #
  ################################################################################
    species        Cl
  #     global species definitions
      nucleus             17
      mass                35.453
  #
      l_hartree           6
  #
      cut_pot             4.0          2.0  1.0
      basis_dep_cutoff    1e-4
  #
      radial_base         45 7.0
      radial_multiplier   2
      angular_grids       specified
        division   0.4412  110
        division   0.5489  194
        division   0.6734  302
        division   0.7794  434
  #      division   0.9402  590
  #      division   1.0779  770
  #      division   1.1792  974
  #      outer_grid  974
        outer_grid  434
  ################################################################################
  #
  #  Definition of "minimal" basis
  #
  ################################################################################
  #     valence basis states
      valence      3  s   2.
      valence      3  p   5.
  #     ion occupancy
      ion_occ      3  s   1.
      ion_occ      3  p   4.
  ################################################################################
  #
  #  Suggested additional basis functions. For production calculations,
  #  uncomment them one after another (the most important basis functions are
  #  listed first).
  #
  #  Constructed for dimers: 1.65 A, 2.0 A, 2.5 A, 3.25 A, 4.0 A
  #
  ################################################################################
  #  "First tier" - improvements: -429.57 meV to -15.03 meV
       ionic 3 d auto
       hydro 2 p 1.9
       hydro 4 f 7.4
       ionic 3 s auto
       hydro 5 g 10.4
  #  "Second tier" - improvements: -7.84 meV to -0.48 meV
       hydro 3 d 3.3
  #     hydro 5 f 9.8
  #     hydro 1 s 0.75
  #     hydro 5 g 11.2
  #     hydro 4 p 10.4
  #  "Third tier" - improvements: -1.00 meV to -0.12 meV
  #     hydro 4 d 12.8
  #     hydro 4 f 4.6
  #     hydro 4 d 10.8
  #     hydro 2 s 1.8
  #     hydro 3 p 3
  #  Further functions that fell out - improvements: -0.10 meV and below
  #     hydro 5 f 14.4
  #     hydro 4 s 12.8
  #     hydro 3 d 11.6
  #     hydro 4 s 4.1
  ################################################################################
  #
  # For methods that use the localized form of the "resolution of identity" for
  # the two-electron Coulomb operator (RI_method LVL), particularly Hartree-Fock and
  # hybrid density functional calculations, the highest accuracy can be obtained by
  # uncommenting the line beginning with "for_aux"  below, thus adding an extra g radial
  # function to the construction of the product basis set for the expansion.
  # See Ref. New J. Phys. 17, 093020 (2015) for more information, particularly Figs. 1 and 6.
  #
  ################################################################################
  #
  # for_aux hydro 5 g 6.0
  
  -----------------------------------------------------------------------
  Completed first pass over input file control.in .
  -----------------------------------------------------------------------
  
  
  -----------------------------------------------------------------------
  Parsing geometry.in (first pass over file, find array dimensions only).
  The contents of geometry.in will be repeated verbatim below
  unless switched off by setting 'verbatim_writeout .false.' .
  in the first line of geometry.in .
  -----------------------------------------------------------------------
  
  #=======================================================
  # FHI-aims file: ./data/test_rep/geometry.in.9
  # Created using the Atomic Simulation Environment (ASE)
  # Mon Jul  4 10:30:48 2022
  #=======================================================
  lattice_vector 20.5878395080799983 0.0000000000000000 0.0000000000000000
  lattice_vector 0.0000000000000000 10.2939197540399991 0.0000000000000000
  lattice_vector 0.0000000000000000 0.0000000000000000 10.2939197540399991
  atom 6.8830028429821581 9.9174995695454058 6.8325185686271910 Li
  atom 17.2337977550785695 9.8530674215937779 7.0921382530396153 Li
  atom 7.0570171942229143 0.6188132314235854 3.7944292606032568 Li
  atom 17.2512518631217660 0.3027604267582189 3.7275138867110797 Li
  atom 3.1509140560823039 7.1935115505041232 0.3393232872152016 Li
  atom 13.4973108167437434 6.8734569193413337 0.5117324002090377 Li
  atom 3.1194478248329482 3.6667912288298949 9.8811178527336558 Li
  atom 13.6544934743390982 3.5080150429172701 9.9155888152757399 Li
  atom 9.9703214633453232 3.4131105961619594 3.2958464103325307 Li
  atom 20.4734505282844665 3.3431446127862166 3.2139740837815078 Li
  atom 6.9569640547834810 5.2823804015918245 1.8376001844152845 Li
  atom 16.7170047520519027 6.6357559111927138 1.4281367941518932 Li
  atom 6.4567839992648874 3.8836182128619083 9.1048249864883779 Li
  atom 17.3628772229673309 5.3043305282223541 8.7640601229264554 Li
  atom 3.5992223933398702 1.1365857668846173 3.8018727090647579 Li
  atom 13.9298774545247497 1.3047852639445754 3.9919932437378409 Li
  atom 0.0238587636280256 2.0375652600536425 8.2943851069089209 Li
  atom 10.6126664683623595 1.5129241467546313 8.1829175285745226 Li
  atom 0.4127563348160026 7.0628239499038985 3.2776205009838875 Li
  atom 10.3418210909443395 7.1833708979934352 2.9179163813438671 Li
  atom 10.2367397317652919 8.1844909893624962 8.2880285356244094 Li
  atom 20.3142013044206742 7.7279438008907162 7.8850452230854469 Li
  atom 1.5559029476865545 9.9124455553356565 1.8518512967300922 Li
  atom 12.1714619510241988 9.8987918054385933 1.6520889301747670 Li
  atom 2.1185929872854858 0.0928545663262759 8.5394900426782030 Li
  atom 13.6625347624102300 10.1083875924886044 7.0646819854456853 Li
  atom 3.2210707828087939 8.4454425412716176 5.1466542646139706 Li
  atom 12.1045712038663442 7.2411042069949403 5.0359729008239951 Li
  atom 8.5077146820562284 6.9202562220267252 5.4232513435752887 Li
  atom 18.3625456417784818 7.0670602144041936 5.6496118299900768 Li
  atom 8.9618880099326610 3.9241181060555048 6.3165252748729994 Li
  atom 18.4793716351600139 3.3831843018454340 5.1676754455440808 Li
  atom 5.4078328798811430 6.7400333021230647 8.5404908906335848 Li
  atom 15.4949449572827369 7.1699735018707553 8.4786067922116448 Li
  atom 5.1540992226105722 3.1875884105864598 1.8884692048527218 Li
  atom 15.7566511120953674 3.6642713800037385 1.8724992578827955 Li
  atom 1.7805440721926302 4.7919108115360540 6.6688561973406317 Li
  atom 12.1754483722738165 4.6997027534369105 6.6662000852953671 Li
  atom 3.2671518103703021 5.5179194447224296 2.3861297556829699 Li
  atom 12.4276095655403367 5.2991269662945566 3.0570816635022515 Li
  atom 8.3508551060739062 1.6096544740156227 0.3014399783298156 Li
  atom 18.5831356599486064 1.8067730475195702 0.4744016309034603 Li
  atom 8.1633683373330985 8.4841727263362010 10.1808825715338607 Li
  atom 18.5998860070839420 8.6556616223455762 10.1205512513687435 Li
  atom 4.7588424620955827 1.8296698128993159 6.6548140968666951 Li
  atom 15.3266960227894824 2.0651755881006917 6.9204383787988775 Li
  atom 5.0553747793071757 8.4458513571112359 3.2210197867192836 Li
  atom 14.7892041389147142 8.3129491075914732 4.0737748878620783 Li
  atom 0.0029388180502638 0.1418391494467733 10.0824828313602541 Cl
  atom 10.0758427901927003 10.1105721344162944 10.0149866075953344 Cl
  atom 20.3879598591265143 5.0871598521080879 5.0575481676770817 Cl
  atom 2.4300178336104854 2.4970317745132511 7.7673117600409700 Cl
  atom 12.8971369967621712 2.4475622533379995 7.7081200015748790 Cl
  atom 7.7637235546392560 7.7639881311747976 7.8058991460872162 Cl
  atom 7.5859770494898369 2.7765867252352670 2.3991471874184920 Cl
  atom 18.0479207571214388 2.6216722902573006 2.7849722842836679 Cl
  atom 20.5182935792768291 10.2898657961832516 5.2063746353253872 P
  atom 10.1939455943322663 0.0407099106723232 5.0174209400064989 P
  atom 5.1175627502305803 0.0811015771744826 0.0271838503059419 P
  atom 15.4205398855190090 0.0834931396405318 0.1544263085083941 P
  atom 0.0162528197176177 5.1965656066588197 0.0960730926662667 P
  atom 10.2880998198438878 5.0285667913777585 10.1592550228232081 P
  atom 5.1534638451417356 5.1032273322116941 5.2650406416301205 P
  atom 15.3961011525528910 5.2150267608337462 5.2112160227170010 P
  atom 1.2169305929143237 9.1610148585421687 6.4984396357221224 S
  atom 11.4302856533085819 9.2236122860016430 6.3824210982917124 S
  atom 8.9016892185218701 1.2961754258293414 6.1796889889978868 S
  atom 19.2260176997166461 1.2442497971774338 6.3710605750697535 S
  atom 8.8899468531942993 9.0137757841133066 3.9642826216155074 S
  atom 19.3136490371355762 8.9436715502459734 4.0790301071286148 S
  atom 1.0686769209206373 1.2110110112254826 3.8539071857395562 S
  atom 11.3320000054841508 1.2027750798987769 3.6566253446034653 S
  atom 6.2823421057834778 1.2697734424770273 8.9570537244250055 S
  atom 16.6490166310205723 1.2138601363007853 9.1191771834090591 S
  atom 6.4852153628013580 9.4891427425780943 1.3964929804288984 S
  atom 16.7211777310936540 9.2886156575063836 1.4767968879281308 S
  atom 4.0825154686088556 8.9549954954456936 9.1087320738617663 S
  atom 14.0674906607756203 9.0969582947418974 9.3888667415808946 S
  atom 3.6679760142760993 1.3009781406673320 1.0480361833796144 S
  atom 14.2135946484922844 1.4399400079994820 1.3038226892281710 S
  atom 9.0066333708908850 6.3596832315787424 0.9623258326951142 S
  atom 19.4803110919249569 6.5867465117398565 1.2510121605489186 S
  atom 1.3233497552345455 6.1684055407428868 8.9849141770817020 S
  atom 11.5824774863059190 6.1381209319250578 8.8963661742289322 S
  atom 9.0970720214742151 3.6404550986443112 8.9919613472908289 S
  atom 19.3032567267029975 3.8503127616745516 9.3492408606404869 S
  atom 1.3117249293641995 4.0591986852422943 1.3649198831100797 S
  atom 11.4528026237867167 3.8299142205210139 1.1779800804553373 S
  atom 6.3859665696657046 6.3547223502783527 4.0553887759361835 S
  atom 16.6260668215676937 6.4492459776736615 3.9888744125120623 S
  atom 6.3747982746527141 3.8816322066792579 6.5183141330231091 S
  atom 16.6303859308387452 4.1142222918626175 6.5623704683374289 S
  atom 3.8893317330122921 3.8212091939402719 4.0875861946612257 S
  atom 14.2529036462048726 3.8882524809743870 3.9974390253935046 S
  atom 3.8741764832721546 6.2905251633389980 6.4975501554086632 S
  atom 14.0917768237751559 6.4406144638184104 6.3834770573684274 S
  atom 17.9255257671875050 7.6541698980628423 7.9794773634548104 S
  atom 2.6776187827122877 7.8670235283756877 2.6919449295283191 S
  atom 12.7302217235440054 7.7245613179602586 2.7066018285920017 S
  atom 10.4101994104284543 5.3253484253911134 4.8944905496067630 S
  atom 5.1103823995942532 10.1841925782053639 5.1371347762024735 S
  atom 15.4284220040757809 0.0764077622257386 5.4098075920841913 S
  atom 4.9865812718775242 5.1767028790398548 0.2942167299010486 S
  atom 15.3640724373439905 5.2842329058018995 10.2933471597827033 S
  
  -----------------------------------------------------------------------
  Completed first pass over input file geometry.in .
  -----------------------------------------------------------------------
  

  Basic array size parameters:
  | Number of species                 :        4
  | Number of atoms                   :      104
  | Number of lattice vectors         :        3
  | Max. basis fn. angular momentum   :        4
  | Max. atomic/ionic basis occupied n:        3
  | Max. number of basis fn. types    :        3
  | Max. radial fns per species/type  :        8
  | Max. logarithmic grid size        :     1362
  | Max. radial integration grid size :       91
  | Max. angular integration grid size:      434
  | Max. angular grid division number :        8
  | Radial grid for Hartree potential :     1362
  | Number of spin channels           :        1

------------------------------------------------------------
          Reading file control.in.
------------------------------------------------------------
  XC: Using PBE gradient-corrected functionals.
  Convergence accuracy of total energy:  0.1000E-05
  Convergence accuracy of sum of eigenvalues:  0.1000E-02
  Convergence accuracy of self-consistent charge density:  0.1000E-05
  Convergence accuracy of forces:  0.1000E-03
  Friction is calculated at temperature of   0.3000E+03 K
  Found k-point grid:         1         2         2
 
  Reading configuration options for species Li                  .
  | Found nuclear charge :   3.0000
  | Found atomic mass :    6.94100000000000      amu
  | Found l_max for Hartree potential  :   6
  | Found cutoff potl. onset [A], width [A], scale factor :    5.00000    2.00000    1.00000
  | Threshold for basis-dependent cutoff potential is   0.100000E-03
  | Found data for basic radial integration grid :    29 points, outermost radius =    7.000 A
  | Found multiplier for basic radial grid :   2
  | Found angular grid specification: user-specified.
  | Specified grid contains     5 separate shells.
  | Check grid settings after all constraints further below.
  | Found free-atom valence shell :  2 s   1.000
  | Found free-ion valence shell :  1 s   2.000
  | Found hydrogenic basis function :  2 p   1.600
  | Found hydrogenic basis function :  2 s   2.000
  | Found hydrogenic basis function :  3 d   2.600
  | Found hydrogenic basis function :  3 p   4.600
  | Found hydrogenic basis function :  2 p   1.800
  | Found hydrogenic basis function :  3 s   6.200
  | Found hydrogenic basis function :  4 d   4.700
  | Found hydrogenic basis function :  4 f   4.100
  Species Li                  : Missing cutoff potential type.
  Defaulting to exp(1/x)/(1-x)^2 type cutoff potential.
  Species Li: No 'logarithmic' tag. Using default grid for free atom:
  | Default logarithmic grid data [bohr] : 0.1000E-03 0.1000E+03 0.1012E+01
  Species Li: On-site basis accuracy parameter (for Gram-Schmidt orthonormalisation) not specified.
  Using default value basis_acc =  0.1000000E-03.
  Species Li                  : Using default innermost maximum threshold i_radial=  2 for radial functions.
  Species Li                  : Default cutoff onset for free atom density etc. : 0.50000000E+01 AA.
  Species Li                  : Basic radial grid will be enhanced according to radial_multiplier =   2, to contain    59 grid points.
 
  Reading configuration options for species P                   .
  | Found nuclear charge :  15.0000
  | Found atomic mass :    30.9737620000000      amu
  | Found l_max for Hartree potential  :   6
  | Found cutoff potl. onset [A], width [A], scale factor :    4.00000    2.00000    1.00000
  | Threshold for basis-dependent cutoff potential is   0.100000E-03
  | Found data for basic radial integration grid :    43 points, outermost radius =    7.000 A
  | Found multiplier for basic radial grid :   2
  | Found angular grid specification: user-specified.
  | Specified grid contains     6 separate shells.
  | Check grid settings after all constraints further below.
  | Found free-atom valence shell :  3 s   2.000
  | Found free-atom valence shell :  3 p   3.000
  | Found free-ion valence shell :  3 s   1.000
  | Found free-ion valence shell :  3 p   2.000
  | Found ionic basis function :  3 d , default cutoff radius.
  | Found ionic basis function :  3 p , default cutoff radius.
  | Found hydrogenic basis function :  4 f   6.200
  | Found hydrogenic basis function :  5 g   8.600
  | Found ionic basis function :  3 s , default cutoff radius.
  | Found hydrogenic basis function :  4 d   6.200
  Species P                   : Missing cutoff potential type.
  Defaulting to exp(1/x)/(1-x)^2 type cutoff potential.
  Species P : No 'logarithmic' tag. Using default grid for free atom:
  | Default logarithmic grid data [bohr] : 0.1000E-03 0.1000E+03 0.1012E+01
  | Will include ionic basis functions of  2.0-fold positive P                    ion.
  Species P : On-site basis accuracy parameter (for Gram-Schmidt orthonormalisation) not specified.
  Using default value basis_acc =  0.1000000E-03.
  Species P                   : Using default innermost maximum threshold i_radial=  2 for radial functions.
  Species P                   : Default cutoff onset for free atom density etc. : 0.40000000E+01 AA.
  Species P                   : Basic radial grid will be enhanced according to radial_multiplier =   2, to contain    87 grid points.
 
  Reading configuration options for species S                   .
  | Found nuclear charge :  16.0000
  | Found atomic mass :    32.0650000000000      amu
  | Found l_max for Hartree potential  :   6
  | Found cutoff potl. onset [A], width [A], scale factor :    4.00000    2.00000    1.00000
  | Threshold for basis-dependent cutoff potential is   0.100000E-03
  | Found data for basic radial integration grid :    44 points, outermost radius =    7.000 A
  | Found multiplier for basic radial grid :   2
  | Found angular grid specification: user-specified.
  | Specified grid contains     5 separate shells.
  | Check grid settings after all constraints further below.
  | Found free-atom valence shell :  3 s   2.000
  | Found free-atom valence shell :  3 p   4.000
  | Found free-ion valence shell :  3 s   1.000
  | Found free-ion valence shell :  3 p   3.000
  | Found ionic basis function :  3 d , default cutoff radius.
  | Found hydrogenic basis function :  2 p   1.800
  | Found hydrogenic basis function :  4 f   7.000
  | Found ionic basis function :  3 s , default cutoff radius.
  | Found hydrogenic basis function :  4 d   6.200
  | Found hydrogenic basis function :  5 g  10.800
  Species S                   : Missing cutoff potential type.
  Defaulting to exp(1/x)/(1-x)^2 type cutoff potential.
  Species S : No 'logarithmic' tag. Using default grid for free atom:
  | Default logarithmic grid data [bohr] : 0.1000E-03 0.1000E+03 0.1012E+01
  | Will include ionic basis functions of  2.0-fold positive S                    ion.
  Species S : On-site basis accuracy parameter (for Gram-Schmidt orthonormalisation) not specified.
  Using default value basis_acc =  0.1000000E-03.
  Species S                   : Using default innermost maximum threshold i_radial=  2 for radial functions.
  Species S                   : Default cutoff onset for free atom density etc. : 0.40000000E+01 AA.
  Species S                   : Basic radial grid will be enhanced according to radial_multiplier =   2, to contain    89 grid points.
 
  Reading configuration options for species Cl                  .
  | Found nuclear charge :  17.0000
  | Found atomic mass :    35.4530000000000      amu
  | Found l_max for Hartree potential  :   6
  | Found cutoff potl. onset [A], width [A], scale factor :    4.00000    2.00000    1.00000
  | Threshold for basis-dependent cutoff potential is   0.100000E-03
  | Found data for basic radial integration grid :    45 points, outermost radius =    7.000 A
  | Found multiplier for basic radial grid :   2
  | Found angular grid specification: user-specified.
  | Specified grid contains     5 separate shells.
  | Check grid settings after all constraints further below.
  | Found free-atom valence shell :  3 s   2.000
  | Found free-atom valence shell :  3 p   5.000
  | Found free-ion valence shell :  3 s   1.000
  | Found free-ion valence shell :  3 p   4.000
  | Found ionic basis function :  3 d , default cutoff radius.
  | Found hydrogenic basis function :  2 p   1.900
  | Found hydrogenic basis function :  4 f   7.400
  | Found ionic basis function :  3 s , default cutoff radius.
  | Found hydrogenic basis function :  5 g  10.400
  | Found hydrogenic basis function :  3 d   3.300
  Species Cl                  : Missing cutoff potential type.
  Defaulting to exp(1/x)/(1-x)^2 type cutoff potential.
  Species Cl: No 'logarithmic' tag. Using default grid for free atom:
  | Default logarithmic grid data [bohr] : 0.1000E-03 0.1000E+03 0.1012E+01
  | Will include ionic basis functions of  2.0-fold positive Cl                   ion.
  Species Cl: On-site basis accuracy parameter (for Gram-Schmidt orthonormalisation) not specified.
  Using default value basis_acc =  0.1000000E-03.
  Species Cl                  : Using default innermost maximum threshold i_radial=  2 for radial functions.
  Species Cl                  : Default cutoff onset for free atom density etc. : 0.40000000E+01 AA.
  Species Cl                  : Basic radial grid will be enhanced according to radial_multiplier =   2, to contain    91 grid points.
 
  Finished reading input file 'control.in'. Consistency checks are next.
 
  MPI_IN_PLACE appears to work with this MPI implementation.
  | Keeping use_mpi_in_place .true. (see manual).
  Target number of points in a grid batch is not set. Defaulting to  100
  Method for grid partitioning is not set. Defaulting to parallel hash+maxmin partitioning.
  Batch size limit is not set. Defaulting to    200
  By default, will store active basis functions for each batch.
  If in need of memory, prune_basis_once .false. can be used to disable this option.
  communication_type for Hartree potential was not specified.
  Defaulting to calc_hartree .
  Defaulting to Pulay charge density mixer.
  Pulay mixer: Number of relevant iterations not set.
  Defaulting to    8 iterations.
  Pulay mixer: Number of initial linear mixing iterations not set.
  Defaulting to    0 iterations.
  Work space size for distributed Hartree potential not set.
  Defaulting to   0.200000E+03 MB.
  Mixing parameter for charge density mixing has not been set.
  Using default: charge_mix_param =     0.0500.
  The mixing parameter will be adjusted in iteration number     2 of the first full s.c.f. cycle only.
  Algorithm-dependent basis array size parameters:
  | n_max_pulay                         :        8
  Maximum number of self-consistency iterations not provided.
  Presetting  1000 iterations.
  Presetting      1001 iterations before the initial mixing cycle
  is restarted anyway using the sc_init_iter criterion / keyword.
  Presetting a factor      1.000 between actual scf density residual
  and density convergence criterion sc_accuracy_rho below which sc_init_iter
  takes no effect.
  Geometry relaxation not requested: no relaxation will be performed.
  Handling of forces: Unphysical translation and rotation will be removed from forces.
  No accuracy limit for integral partition fn. given. Defaulting to  0.1000E-14.
  No threshold value for u(r) in integrations given. Defaulting to  0.1000E-05.
  No occupation type (smearing scheme) given. Defaulting to Gaussian broadening, width =  0.1000E-01 eV.
  The width will be adjusted in iteration number     2 of the first full s.c.f. cycle only.
  S.C.F. convergence parameters will be adjusted in iteration number     2 of the first full s.c.f. cycle only.
  No accuracy for occupation numbers given. Defaulting to  0.1000E-12.
  No threshold value for occupation numbers given. Defaulting to  0.0000E+00.
  No accuracy for fermi level given. Defaulting to  0.1000E-19.
  Maximum # of iterations to find E_F not set. Defaulting to  200.
  Preferred method for the eigenvalue solver ('KS_method') not specified in 'control.in'.
  Calling BLACS routine to test compilation state
  Since ScaLAPACK support is enabled, defaulting to 'elsi'.
  Will not use alltoall communication since running on < 1024 CPUs.
  Threshold for basis singularities not set.
  Default threshold for basis singularities:  0.1000E-04
  partition_type (choice of integration weights) for integrals was not specified.
  | Using a version of the partition function of Stratmann and coworkers ('stratmann_smoother').
  | At each grid point, the set of atoms used to build the partition table is smoothly restricted to
  | only those atoms whose free-atom density would be non-zero at that grid point.
  Partitioning for Hartree potential was not defined. Using partition_type for integrals.
  | Adjusted default value of keyword multip_moments_threshold to:       0.10000000E-11
  | This value may affect high angular momentum components of the Hartree potential in periodic systems.
  Spin handling was not defined in control.in. Defaulting to unpolarized case.
  Angular momentum expansion for Kerker preconditioner not set explicitly.
  | Using default value of   0
  No explicit requirement for turning off preconditioner.
  | By default, it will be turned off when the charge convergence reaches
  | sc_accuracy_rho  =   0.100000E-05
  | sc_accuracy_eev  =   0.100000E-02
  | sc_accuracy_etot =   0.100000E-05
  No special mixing parameter while Kerker preconditioner is on.
  Using default: charge_mix_param =     0.0500.
  No q(lm)/r^(l+1) cutoff set for long-range Hartree potential.
  | Using default value of  0.100000E-09 .
  | Verify using the multipole_threshold keyword.
  Defaulting to new monopole extrapolation.
  Density update method: automatic selection selected.
  Using density matrix based charge density update.
  Using density matrix based charge density update.
  Using packed matrix style: index .
  Defaulting to use time-reversal symmetry for k-point grid.
------------------------------------------------------------


------------------------------------------------------------
          Reading geometry description geometry.in.
------------------------------------------------------------
 * Warning! You did not set the 'relativistic' flag in input file 'control.in'.
 * Since you are not attempting to treat any elements beyond Ca(Z=20), FHI-aims
 * will default to 'relativistic none'.
 * You must ensure that this is really what you want!!
 * For example, DO NOT compute total-energy differences between results from
 * different settings of the 'relativistic' flag.
  Input structure read successfully.
  The structure contains      104 atoms,  and a total of       1040.000 electrons.

  Input geometry:
  | Unit cell:
  |       20.58783951        0.00000000        0.00000000
  |        0.00000000       10.29391975        0.00000000
  |        0.00000000        0.00000000       10.29391975
  | Atomic structure:
  |       Atom                x [A]            y [A]            z [A]
  |    1: Species Li            6.88300284        9.91749957        6.83251857
  |    2: Species Li           17.23379776        9.85306742        7.09213825
  |    3: Species Li            7.05701719        0.61881323        3.79442926
  |    4: Species Li           17.25125186        0.30276043        3.72751389
  |    5: Species Li            3.15091406        7.19351155        0.33932329
  |    6: Species Li           13.49731082        6.87345692        0.51173240
  |    7: Species Li            3.11944782        3.66679123        9.88111785
  |    8: Species Li           13.65449347        3.50801504        9.91558882
  |    9: Species Li            9.97032146        3.41311060        3.29584641
  |   10: Species Li           20.47345053        3.34314461        3.21397408
  |   11: Species Li            6.95696405        5.28238040        1.83760018
  |   12: Species Li           16.71700475        6.63575591        1.42813679
  |   13: Species Li            6.45678400        3.88361821        9.10482499
  |   14: Species Li           17.36287722        5.30433053        8.76406012
  |   15: Species Li            3.59922239        1.13658577        3.80187271
  |   16: Species Li           13.92987745        1.30478526        3.99199324
  |   17: Species Li            0.02385876        2.03756526        8.29438511
  |   18: Species Li           10.61266647        1.51292415        8.18291753
  |   19: Species Li            0.41275633        7.06282395        3.27762050
  |   20: Species Li           10.34182109        7.18337090        2.91791638
  |   21: Species Li           10.23673973        8.18449099        8.28802854
  |   22: Species Li           20.31420130        7.72794380        7.88504522
  |   23: Species Li            1.55590295        9.91244556        1.85185130
  |   24: Species Li           12.17146195        9.89879181        1.65208893
  |   25: Species Li            2.11859299        0.09285457        8.53949004
  |   26: Species Li           13.66253476       10.10838759        7.06468199
  |   27: Species Li            3.22107078        8.44544254        5.14665426
  |   28: Species Li           12.10457120        7.24110421        5.03597290
  |   29: Species Li            8.50771468        6.92025622        5.42325134
  |   30: Species Li           18.36254564        7.06706021        5.64961183
  |   31: Species Li            8.96188801        3.92411811        6.31652527
  |   32: Species Li           18.47937164        3.38318430        5.16767545
  |   33: Species Li            5.40783288        6.74003330        8.54049089
  |   34: Species Li           15.49494496        7.16997350        8.47860679
  |   35: Species Li            5.15409922        3.18758841        1.88846920
  |   36: Species Li           15.75665111        3.66427138        1.87249926
  |   37: Species Li            1.78054407        4.79191081        6.66885620
  |   38: Species Li           12.17544837        4.69970275        6.66620009
  |   39: Species Li            3.26715181        5.51791944        2.38612976
  |   40: Species Li           12.42760957        5.29912697        3.05708166
  |   41: Species Li            8.35085511        1.60965447        0.30143998
  |   42: Species Li           18.58313566        1.80677305        0.47440163
  |   43: Species Li            8.16336834        8.48417273       10.18088257
  |   44: Species Li           18.59988601        8.65566162       10.12055125
  |   45: Species Li            4.75884246        1.82966981        6.65481410
  |   46: Species Li           15.32669602        2.06517559        6.92043838
  |   47: Species Li            5.05537478        8.44585136        3.22101979
  |   48: Species Li           14.78920414        8.31294911        4.07377489
  |   49: Species Cl            0.00293882        0.14183915       10.08248283
  |   50: Species Cl           10.07584279       10.11057213       10.01498661
  |   51: Species Cl           20.38795986        5.08715985        5.05754817
  |   52: Species Cl            2.43001783        2.49703177        7.76731176
  |   53: Species Cl           12.89713700        2.44756225        7.70812000
  |   54: Species Cl            7.76372355        7.76398813        7.80589915
  |   55: Species Cl            7.58597705        2.77658673        2.39914719
  |   56: Species Cl           18.04792076        2.62167229        2.78497228
  |   57: Species P            20.51829358       10.28986580        5.20637464
  |   58: Species P            10.19394559        0.04070991        5.01742094
  |   59: Species P             5.11756275        0.08110158        0.02718385
  |   60: Species P            15.42053989        0.08349314        0.15442631
  |   61: Species P             0.01625282        5.19656561        0.09607309
  |   62: Species P            10.28809982        5.02856679       10.15925502
  |   63: Species P             5.15346385        5.10322733        5.26504064
  |   64: Species P            15.39610115        5.21502676        5.21121602
  |   65: Species S             1.21693059        9.16101486        6.49843964
  |   66: Species S            11.43028565        9.22361229        6.38242110
  |   67: Species S             8.90168922        1.29617543        6.17968899
  |   68: Species S            19.22601770        1.24424980        6.37106058
  |   69: Species S             8.88994685        9.01377578        3.96428262
  |   70: Species S            19.31364904        8.94367155        4.07903011
  |   71: Species S             1.06867692        1.21101101        3.85390719
  |   72: Species S            11.33200001        1.20277508        3.65662534
  |   73: Species S             6.28234211        1.26977344        8.95705372
  |   74: Species S            16.64901663        1.21386014        9.11917718
  |   75: Species S             6.48521536        9.48914274        1.39649298
  |   76: Species S            16.72117773        9.28861566        1.47679689
  |   77: Species S             4.08251547        8.95499550        9.10873207
  |   78: Species S            14.06749066        9.09695829        9.38886674
  |   79: Species S             3.66797601        1.30097814        1.04803618
  |   80: Species S            14.21359465        1.43994001        1.30382269
  |   81: Species S             9.00663337        6.35968323        0.96232583
  |   82: Species S            19.48031109        6.58674651        1.25101216
  |   83: Species S             1.32334976        6.16840554        8.98491418
  |   84: Species S            11.58247749        6.13812093        8.89636617
  |   85: Species S             9.09707202        3.64045510        8.99196135
  |   86: Species S            19.30325673        3.85031276        9.34924086
  |   87: Species S             1.31172493        4.05919869        1.36491988
  |   88: Species S            11.45280262        3.82991422        1.17798008
  |   89: Species S             6.38596657        6.35472235        4.05538878
  |   90: Species S            16.62606682        6.44924598        3.98887441
  |   91: Species S             6.37479827        3.88163221        6.51831413
  |   92: Species S            16.63038593        4.11422229        6.56237047
  |   93: Species S             3.88933173        3.82120919        4.08758619
  |   94: Species S            14.25290365        3.88825248        3.99743903
  |   95: Species S             3.87417648        6.29052516        6.49755016
  |   96: Species S            14.09177682        6.44061446        6.38347706
  |   97: Species S            17.92552577        7.65416990        7.97947736
  |   98: Species S             2.67761878        7.86702353        2.69194493
  |   99: Species S            12.73022172        7.72456132        2.70660183
  |  100: Species S            10.41019941        5.32534843        4.89449055
  |  101: Species S             5.11038240       10.18419258        5.13713478
  |  102: Species S            15.42842200        0.07640776        5.40980759
  |  103: Species S             4.98658127        5.17670288        0.29421673
  |  104: Species S            15.36407244        5.28423291       10.29334716

  Lattice parameters for 3D lattice (in Angstroms) :    20.587840   10.293920   10.293920
  Angle(s) between unit vectors (in degrees)      :    90.000000   90.000000   90.000000

  |

  | The smallest distance between any two atoms is         2.12069044 AA.
  |
  | The first atom of this pair is atom number                     72 .
  | The second atom of this pair is atom number                    58 .
  | Wigner-Seitz cell of the first atom image           1     0     0 .
  | (The Wigner-Seitz cell of the second atom is 0 0 0  by definition.)

  Symmetry information by spglib:
  | Precision set to  0.1E-04
  | Number of Operations  : 1
  | Space group           : 1
  | International         : P1
  | Schoenflies           : C1^1

  Quantities derived from the lattice vectors:
  | Reciprocal lattice vector 1:  0.305189  0.000000  0.000000
  | Reciprocal lattice vector 2:  0.000000  0.610378  0.000000
  | Reciprocal lattice vector 3:  0.000000  0.000000  0.610378
  | Unit cell volume                               :   0.218159E+04  A^3

  Range separation radius for Ewald summation (hartree_convergence_parameter):      3.95581972 bohr.

  Fractional coordinates:
                         L1                L2                L3
       atom_frac         0.33432371        0.96343276        0.66374313  Li
       atom_frac         0.83708627        0.95717352        0.68896382  Li
       atom_frac         0.34277600        0.06011444        0.36860879  Li
       atom_frac         0.83793406        0.02941158        0.36210831  Li
       atom_frac         0.15304734        0.69881170        0.03296347  Li
       atom_frac         0.65559627        0.66772008        0.04971210  Li
       atom_frac         0.15151895        0.35620942        0.95989847  Li
       atom_frac         0.66323100        0.34078516        0.96324715  Li
       atom_frac         0.48428207        0.33156569        0.32017409  Li
       atom_frac         0.99444386        0.32476886        0.31222063  Li
       atom_frac         0.33791618        0.51315539        0.17851316  Li
       atom_frac         0.81198441        0.64462868        0.13873596  Li
       atom_frac         0.31362125        0.37727302        0.88448572  Li
       atom_frac         0.84335596        0.51528773        0.85138221  Li
       atom_frac         0.17482273        0.11041331        0.36933188  Li
       atom_frac         0.67660705        0.12675301        0.38780108  Li
       atom_frac         0.00115888        0.19793872        0.80575576  Li
       atom_frac         0.51548228        0.14697260        0.79492727  Li
       atom_frac         0.02004855        0.68611609        0.31840354  Li
       atom_frac         0.50232668        0.69782659        0.28346018  Li
       atom_frac         0.49722263        0.79508012        0.80513825  Li
       atom_frac         0.98670875        0.75072897        0.76599055  Li
       atom_frac         0.07557388        0.96294179        0.17989758  Li
       atom_frac         0.59119666        0.96161540        0.16049172  Li
       atom_frac         0.10290507        0.00902033        0.82956641  Li
       atom_frac         0.66362159        0.98197653        0.68629659  Li
       atom_frac         0.15645502        0.82043019        0.49997031  Li
       atom_frac         0.58794762        0.70343507        0.48921820  Li
       atom_frac         0.41323980        0.67226639        0.52684026  Li
       atom_frac         0.89191222        0.68652762        0.54882999  Li
       atom_frac         0.43530007        0.38120737        0.61361711  Li
       atom_frac         0.89758673        0.32865851        0.50201241  Li
       atom_frac         0.26267122        0.65475868        0.82966364  Li
       atom_frac         0.75262608        0.69652510        0.82365192  Li
       atom_frac         0.25034677        0.30965740        0.18345482  Li
       atom_frac         0.76533777        0.35596463        0.18190342  Li
       atom_frac         0.08648523        0.46550886        0.64784420  Li
       atom_frac         0.59139029        0.45655133        0.64758617  Li
       atom_frac         0.15869328        0.53603677        0.23179992  Li
       atom_frac         0.60363835        0.51478223        0.29697936  Li
       atom_frac         0.40562076        0.15636944        0.02928330  Li
       atom_frac         0.90262680        0.17551847        0.04608562  Li
       atom_frac         0.39651408        0.82419262        0.98901903  Li
       atom_frac         0.90344040        0.84085186        0.98315816  Li
       atom_frac         0.23114822        0.17774277        0.64648008  Li
       atom_frac         0.74445383        0.20062091        0.67228408  Li
       atom_frac         0.24555150        0.82046990        0.31290508  Li
       atom_frac         0.71834658        0.80755915        0.39574574  Li
       atom_frac         0.00014275        0.01377893        0.97946002  Cl
       atom_frac         0.48940749        0.98218875        0.97290312  Cl
       atom_frac         0.99029137        0.49419074        0.49131412  Cl
       atom_frac         0.11803171        0.24257346        0.75455336  Cl
       atom_frac         0.62644441        0.23776776        0.74880320  Cl
       atom_frac         0.37710239        0.75423049        0.75830192  Cl
       atom_frac         0.36846883        0.26973075        0.23306449  Cl
       atom_frac         0.87663015        0.25468163        0.27054537  Cl
       atom_frac         0.99662199        0.99960618        0.50577183  P
       atom_frac         0.49514402        0.00395475        0.48741598  P
       atom_frac         0.24857211        0.00787859        0.00264077  P
       atom_frac         0.74901205        0.00811092        0.01500170  P
       atom_frac         0.00078944        0.50481893        0.00933299  P
       atom_frac         0.49971731        0.48849874        0.98691803  P
       atom_frac         0.25031591        0.49575161        0.51147092  P
       atom_frac         0.74782500        0.50661234        0.50624215  P
       atom_frac         0.05910919        0.88994427        0.63128913  S
       atom_frac         0.55519598        0.89602528        0.62001854  S
       atom_frac         0.43237607        0.12591660        0.60032419  S
       atom_frac         0.93385310        0.12087230        0.61891493  S
       atom_frac         0.43180572        0.87564077        0.38510914  S
       atom_frac         0.93810956        0.86883051        0.39625626  S
       atom_frac         0.05190816        0.11764333        0.37438675  S
       atom_frac         0.55042201        0.11684325        0.35522186  S
       atom_frac         0.30514820        0.12335179        0.87013052  S
       atom_frac         0.80868207        0.11792011        0.88587996  S
       atom_frac         0.31500223        0.92182016        0.13566193  S
       atom_frac         0.81218710        0.90234001        0.14346303  S
       atom_frac         0.19829742        0.86993057        0.88486527  S
       atom_frac         0.68329125        0.88372151        0.91207887  S
       atom_frac         0.17816226        0.12638316        0.10181119  S
       atom_frac         0.69038787        0.13988258        0.12665950  S
       atom_frac         0.43747346        0.61780968        0.09348488  S
       atom_frac         0.94620473        0.63986768        0.12152923  S
       atom_frac         0.06427822        0.59922806        0.87283701  S
       atom_frac         0.56258829        0.59628607        0.86423504  S
       atom_frac         0.44186628        0.35365101        0.87352161  S
       atom_frac         0.93760478        0.37403757        0.90822943  S
       atom_frac         0.06371358        0.39432974        0.13259477  S
       atom_frac         0.55628968        0.37205596        0.11443455  S
       atom_frac         0.31018148        0.61732775        0.39395963  S
       atom_frac         0.80756734        0.62651022        0.38749811  S
       atom_frac         0.30963901        0.37708009        0.63321983  S
       atom_frac         0.80777713        0.39967499        0.63749967  S
       atom_frac         0.18891403        0.37121031        0.39708744  S
       atom_frac         0.69229720        0.37772322        0.38833011  S
       atom_frac         0.18817790        0.61109133        0.63120272  S
       atom_frac         0.68447089        0.62567172        0.62012112  S
       atom_frac         0.87068513        0.74356223        0.77516413  S
       atom_frac         0.13005827        0.76423983        0.26150825  S
       atom_frac         0.61833694        0.75040038        0.26293209  S
       atom_frac         0.50564798        0.51732951        0.47547394  S
       atom_frac         0.24822335        0.98934058        0.49904554  S
       atom_frac         0.74939490        0.00742261        0.52553427  S
       atom_frac         0.24221003        0.50288938        0.02858160  S
       atom_frac         0.74626929        0.51333535        0.99994438  S

  Number of empty states per atom not set in control.in - providing a guess from actual geometry.
  | Total number of empty states used during s.c.f. cycle:      240
  If you use a very high smearing, use empty_states (per atom!) in control.in to increase this value.

  Structure-dependent array size parameters: 
  | Maximum number of distinct radial functions  :       43
  | Maximum number of basis functions            :     3624
  | Number of Kohn-Sham states (occupied + empty):      760
------------------------------------------------------------

------------------------------------------------------------
          Preparing all fixed parts of the calculation.
------------------------------------------------------------
  Determining machine precision:
    2.225073858507201E-308
  Setting up grids for atomic and cluster calculations.

  Creating wave function, potential, and density for free atoms.

  Species: Li

  List of occupied orbitals and eigenvalues:
    n    l              occ      energy [Ha]    energy [eV]
    1    0           2.0000        -1.901473       -51.7417
    2    0           1.0000        -0.103132        -2.8064


  Species: P

  List of occupied orbitals and eigenvalues:
    n    l              occ      energy [Ha]    energy [eV]
    1    0           2.0000       -76.356288     -2077.7603
    2    0           2.0000        -6.358286      -173.0178
    3    0           2.0000        -0.509419       -13.8620
    2    1           6.0000        -4.573976      -124.4642
    3    1           3.0000        -0.201560        -5.4847


  Species: S

  List of occupied orbitals and eigenvalues:
    n    l              occ      energy [Ha]    energy [eV]
    1    0           2.0000       -88.108280     -2397.5483
    2    0           2.0000        -7.732485      -210.4116
    3    0           2.0000        -0.629532       -17.1304
    2    1           6.0000        -5.750324      -156.4743
    3    1           4.0000        -0.257562        -7.0086


  Species: Cl

  List of occupied orbitals and eigenvalues:
    n    l              occ      energy [Ha]    energy [eV]
    1    0           2.0000      -100.710795     -2740.4802
    2    0           2.0000        -9.222997      -250.9705
    3    0           2.0000        -0.754245       -20.5241
    2    1           6.0000        -7.039872      -191.5647
    3    1           5.0000        -0.316221        -8.6048

  Creating fixed part of basis set: Ionic, confined, hydrogenic.
 
  Li                   hydrogenic:
 
  List of hydrogenic basis orbitals: 
    n    l      effective z      eigenvalue [eV]  inner max. [A]     outer max. [A]     outer radius [A]   
    2    1         1.600000        -8.7048           1.319365           1.319365           6.386418
    2    0         2.000000       -13.6052           0.203259           1.385485           6.232164
    3    2         2.600000       -10.2084           1.835332           1.835332           6.386418
    3    1         4.600000       -31.9883           0.343834           1.385485           5.381805
    2    1         1.800000       -11.0199           1.181903           1.181903           6.386418
    3    0         6.200000       -58.1113           0.062858           1.111823           4.371906
    4    2         4.700000       -18.7772           0.761113           2.401695           6.386418
    4    3         4.100000       -14.2833           2.073992           2.073992           6.386418
 
 
  P                    ion:

  List of free ionic orbitals and eigenvalues:
    n    l      energy [Ha]    energy [eV]
    1    0       -77.297133     -2103.3620
    2    0        -7.273914      -197.9333
    3    0        -1.267536       -34.4914
    2    1        -5.491316      -149.4263
    3    1        -0.913470       -24.8568


  List of ionic basis orbitals and eigenvalues:
    n    l      energy [Ha]    energy [eV]    outer radius [A]
    3    2        -0.458060       -12.4644       5.404780
    3    1        -0.913461       -24.8565       4.724723
    3    0        -1.267529       -34.4912       4.232463

 
  P                    hydrogenic:
 
  List of hydrogenic basis orbitals: 
    n    l      effective z      eigenvalue [eV]  inner max. [A]     outer max. [A]     outer radius [A]   
    4    3         6.200000       -32.6870           1.357793           1.357793           5.339109
    5    4         8.600000       -40.2502           1.534356           1.534356           5.404780
    4    2         6.200000       -32.6848           0.577014           1.820771           5.404780
 
 
  S                    ion:

  List of free ionic orbitals and eigenvalues:
    n    l      energy [Ha]    energy [eV]
    1    0       -89.127201     -2425.2745
    2    0        -8.724378      -237.4024
    3    0        -1.464668       -39.8556
    2    1        -6.744348      -183.5230
    3    1        -1.048520       -28.5317


  List of ionic basis orbitals and eigenvalues:
    n    l      energy [Ha]    energy [eV]    outer radius [A]
    3    2        -0.496514       -13.5108       5.386362
    3    0        -1.464662       -39.8555       3.967934

 
  S                    hydrogenic:
 
  List of hydrogenic basis orbitals: 
    n    l      effective z      eigenvalue [eV]  inner max. [A]     outer max. [A]     outer radius [A]   
    2    1         1.800000       -11.0118           1.168531           1.168531           5.452614
    4    3         7.000000       -41.6672           1.212182           1.212182           5.066981
    4    2         6.200000       -32.6848           0.582121           1.814567           5.386362
    5    4        10.800000       -63.4785           1.227092           1.227092           4.766538
 
 
  Cl                   ion:

  List of free ionic orbitals and eigenvalues:
    n    l      energy [Ha]    energy [eV]
    1    0      -101.807232     -2770.3157
    2    0       -10.290876      -280.0290
    3    0        -1.664625       -45.2967
    2    1        -8.110237      -220.6908
    3    1        -1.183915       -32.2160


  List of ionic basis orbitals and eigenvalues:
    n    l      energy [Ha]    energy [eV]    outer radius [A]
    3    2        -0.529392       -14.4055       5.389057
    3    0        -1.664620       -45.2966       3.780461

 
  Cl                   hydrogenic:
 
  List of hydrogenic basis orbitals: 
    n    l      effective z      eigenvalue [eV]  inner max. [A]     outer max. [A]     outer radius [A]   
    2    1         1.900000       -12.2741           1.113321           1.113321           5.389057
    4    3         7.400000       -46.5653           1.140877           1.140877           4.886961
    5    4        10.400000       -58.8635           1.273568           1.273568           4.886961
    3    2         3.300000       -16.4532           1.439178           1.439178           5.455343
 

  Adding cutoff potential to free-atom effective potential.
  Creating atomic-like basis functions for current effective potential.

  Species Li                  :

  List of atomic basis orbitals and eigenvalues:
    n    l      energy [Ha]    energy [eV]    outer radius [A]
    1    0        -1.901473       -51.7417       4.318785
    2    0        -0.103132        -2.8064       6.464971


  Species P                   :

  List of atomic basis orbitals and eigenvalues:
    n    l      energy [Ha]    energy [eV]    outer radius [A]
    1    0       -76.356288     -2077.7603       0.736837
    2    0        -6.358286      -173.0178       2.532824
    3    0        -0.509419       -13.8620       5.274236
    2    1        -4.573976      -124.4642       2.862183
    3    1        -0.201560        -5.4847       5.404780


  Species S                   :

  List of atomic basis orbitals and eigenvalues:
    n    l      energy [Ha]    energy [eV]    outer radius [A]
    1    0       -88.108280     -2397.5483       0.682391
    2    0        -7.732485      -210.4116       2.317169
    3    0        -0.629532       -17.1304       5.256262
    2    1        -5.750324      -156.4743       2.555240
    3    1        -0.257562        -7.0086       5.386362


  Species Cl                  :

  List of atomic basis orbitals and eigenvalues:
    n    l      energy [Ha]    energy [eV]    outer radius [A]
    1    0      -100.710795     -2740.4802       0.642251
    2    0        -9.222997      -250.9705       2.128190
    3    0        -0.754245       -20.5241       5.194994
    2    1        -7.039872      -191.5647       2.346844
    3    1        -0.316221        -8.6048       5.323577

  Assembling full basis from fixed parts.
  | Species Li :   atomic orbital   1 s accepted.
  | Species Li :    hydro orbital   3 s accepted.
  | Species Li :    hydro orbital   2 s accepted.
  | Species Li :   atomic orbital   2 s accepted.
  | Species Li :    hydro orbital   3 p accepted.
  | Species Li :    hydro orbital   2 p accepted.
  | Species Li :    hydro orbital   2 p accepted.
  | Species Li :    hydro orbital   3 d accepted.
  | Species Li :    hydro orbital   4 d accepted.
  | Species Li :    hydro orbital   4 f accepted.
  | Species P :   atomic orbital   1 s accepted.
  | Species P :   atomic orbital   2 s accepted.
  | Species P :    ionic orbital   3 s accepted.
  | Species P :   atomic orbital   3 s accepted.
  | Species P :   atomic orbital   2 p accepted.
  | Species P :    ionic orbital   3 p accepted.
  | Species P :   atomic orbital   3 p accepted.
  | Species P :    ionic orbital   3 d accepted.
  | Species P :    hydro orbital   4 d accepted.
  | Species P :    hydro orbital   4 f accepted.
  | Species P :    hydro orbital   5 g accepted.
  | Species S :   atomic orbital   1 s accepted.
  | Species S :   atomic orbital   2 s accepted.
  | Species S :    ionic orbital   3 s accepted.
  | Species S :   atomic orbital   3 s accepted.
  | Species S :   atomic orbital   2 p accepted.
  | Species S :   atomic orbital   3 p accepted.
  | Species S :    hydro orbital   2 p accepted.
  | Species S :    ionic orbital   3 d accepted.
  | Species S :    hydro orbital   4 d accepted.
  | Species S :    hydro orbital   4 f accepted.
  | Species S :    hydro orbital   5 g accepted.
  | Species Cl :   atomic orbital   1 s accepted.
  | Species Cl :   atomic orbital   2 s accepted.
  | Species Cl :    ionic orbital   3 s accepted.
  | Species Cl :   atomic orbital   3 s accepted.
  | Species Cl :   atomic orbital   2 p accepted.
  | Species Cl :   atomic orbital   3 p accepted.
  | Species Cl :    hydro orbital   2 p accepted.
  | Species Cl :    ionic orbital   3 d accepted.
  | Species Cl :    hydro orbital   3 d accepted.
  | Species Cl :    hydro orbital   4 f accepted.
  | Species Cl :    hydro orbital   5 g accepted.
 
  Basis size parameters after reduction:
  | Total number of radial functions:       43
  | Total number of basis functions :     3624
 
  Per-task memory consumption for arrays in subroutine allocate_ext:
  |          11.338440MB.
  Testing on-site integration grid accuracy.
  |  Species  Function  <phi|h_atom|phi> (log., in eV)  <phi|h_atom|phi> (rad., in eV)
           1        1                -51.7417001117                -51.7417000312
           1        2                 33.5927188637                 33.5926505054
           1        3                 69.1469416012                 69.1473382425
           1        4                 48.8336153902                 48.8810182289 ***
           1        5                 17.1749490570                 17.1749098864
           1        6                 32.1201183828                 32.1217831653
           1        7                  6.0166019876                  6.0249480535
           1        8                  4.9175332206                  4.9194842525
           1        9                 28.8010599263                 28.8011051086
           1       10                  9.9331480983                  9.9353515081
           2       11              -2077.7602992527              -2077.7602630746
           2       12               -173.0177635265               -173.0177629291
           2       13                -13.5620523038                -13.5620521963
           2       14                  6.3015351439                  6.3015396353
           2       15               -124.4642131574               -124.4642129967
           2       16                 -4.8468074573                 -4.8468065719
           2       17                  5.8113348591                  5.8108493787
           2       18                  5.1218113540                  5.1217878152
           2       19                 22.1386653152                 22.1386624883
           2       20                 19.3047268689                 19.3047231214
           2       21                 30.3235883931                 30.3235836780
           3       22              -2397.5482725833              -2397.5482291499
           3       23               -210.4116306505               -210.4116300246
           3       24                -16.8591546483                -16.8591544436
           3       25                  7.5848976656                  7.5849001027
           3       26               -156.4742745766               -156.4742744285
           3       27                 -7.0089268331                 -7.0089287934
           3       28                  6.8790437028                  6.8789536772
           3       29                  6.0023049431                  6.0023019693
           3       30                 19.5634804122                 19.5634829634
           3       31                 24.6809503130                 24.6809503093
           3       32                 47.5107032033                 47.5107040524
           4       33              -2740.4801671239              -2740.4801157382
           4       34               -250.9705040601               -250.9705032686
           4       35                -20.2716828479                -20.2716826054
           4       36                  9.0161300765                  9.0161279813
           4       37               -191.5646602865               -191.5646600866
           4       38                 -8.6049187754                 -8.6049181478
           4       39                  7.6458046208                  7.6458222053
           4       40                  6.9765726558                  6.9765744583
           4       41                 16.6546700656                 16.6546956458
           4       42                 28.0343243807                 28.0343233726
           4       43                 45.0370063060                 45.0370052039
 * Note: Onsite integrals marked "***" above are less accurate than
 * onsite_accuracy_threshold =    0.03000 eV. Usually, this is harmless.
 * When in doubt, tighten the "radial" and/or "radial_multiplier" flags to check.

  Preparing densities etc. for the partition functions (integrals / Hartree potential).

  Preparations completed.
  max(cpu_time)          :      0.466 s.
  Wall clock time (cpu1) :      0.468 s.
------------------------------------------------------------

------------------------------------------------------------
          Begin self-consistency loop: Initialization.

          Date     :  20220704, Time     :  083316.692
------------------------------------------------------------

  Initializing index lists of integration centers etc. from given atomic structure:
  Mapping all atomic coordinates to central unit cell.

  Initializing the k-points
          Using symmetry for reducing the k-points
  | k-points reduced from:        4 to        4
  | Number of k-points                             :         4
  The eigenvectors in the calculations are REAL.
  | Number of basis functions in the Hamiltonian integrals :     22313
  | Number of basis functions in a single unit cell        :      3624
  | Number of centers in hartree potential         :      2917
  | Number of centers in hartree multipole         :      2125
  | Number of centers in electron density summation:      1694
  | Number of centers in basis integrals           :      1783
  | Number of centers in integrals                 :       755
  | Number of centers in hamiltonian               :      1989
  | Consuming          3 KiB for k_phase.
  | Number of super-cells (origin) [n_cells]                     :         245
  | Number of super-cells (after PM_index) [n_cells]             :          62
  | Number of super-cells in hamiltonian [n_cells_in_hamiltonian]:          62
  | Size of matrix packed + index [n_hamiltonian_matrix_size] :    17975306
  Using simple linear distribution as default method for k-point parallelism.
  * Using 20 tasks for Scalapack Eigenvalue solver.
  Detailed listing of tasks and assigned k-points:
   Task     0 k-point     1 on node047
   Task     1 k-point     1 on node047
   Task     2 k-point     1 on node047
   Task     3 k-point     1 on node047
   Task     4 k-point     1 on node047
   Task     5 k-point     2 on node047
   Task     6 k-point     2 on node047
   Task     7 k-point     2 on node047
   Task     8 k-point     2 on node047
   Task     9 k-point     2 on node047
   Task    10 k-point     3 on node047
   Task    11 k-point     3 on node047
   Task    12 k-point     3 on node047
   Task    13 k-point     3 on node047
   Task    14 k-point     3 on node047
   Task    15 k-point     4 on node047
   Task    16 k-point     4 on node047
   Task    17 k-point     4 on node047
   Task    18 k-point     4 on node047
   Task    19 k-point     4 on node047
  K-point:     1 Tasks:     5 split into      5 X      1 BLACS grid
  Calculating block size based on n_basis =         3624 max_nprow =            5 max_npcol =            1
  ScaLAPACK block size set to:           16
  Allocating       21.338 MB for ovlp
  Allocating       21.338 MB for ham
  Allocating       21.338 MB for eigenvec
  Required Scalapack workspace - INTEGER:            1 REAL:             1
  Partitioning the integration grid into batches with parallel hashing+maxmin method.
  | Number of batches:    21082
  | Maximal batch size:     119
  | Minimal batch size:      49
  | Average batch size:     102.506
  | Standard deviation of batch sizes:      12.408

  Integration load balanced across    20 MPI tasks.
  Work distribution over tasks is as follows:
  Task     0 has     107996 integration points.
  Task     1 has     108060 integration points.
  Task     2 has     108067 integration points.
  Task     3 has     108044 integration points.
  Task     4 has     108043 integration points.
  Task     5 has     108094 integration points.
  Task     6 has     108002 integration points.
  Task     7 has     108070 integration points.
  Task     8 has     108094 integration points.
  Task     9 has     108104 integration points.
  Task    10 has     108032 integration points.
  Task    11 has     108026 integration points.
  Task    12 has     108014 integration points.
  Task    13 has     108087 integration points.
  Task    14 has     108002 integration points.
  Task    15 has     108010 integration points.
  Task    16 has     108076 integration points.
  Task    17 has     108078 integration points.
  Task    18 has     108087 integration points.
  Task    19 has     108054 integration points.
  Initializing partition tables, free-atom densities, potentials, etc. across the integration grid (initialize_grid_storage).
  | initialize_grid_storage: Actual outermost partition radius vs. multipole_radius_free
  | (-- VB: in principle, multipole_radius_free should be larger, hence this output)
  | Species        1: Confinement radius =              7.000000000000000 AA, multipole_radius_free =              7.042572113910259 AA.
  | Species        1: outer_partition_radius set to              7.042572113910259 AA .
  | Species        2: Confinement radius =              6.000000000000000 AA, multipole_radius_free =              6.033387558927091 AA.
  | Species        2: outer_partition_radius set to              6.033387558927091 AA .
  | Species        3: Confinement radius =              6.000000000000000 AA, multipole_radius_free =              6.012827091137924 AA.
  | Species        3: outer_partition_radius set to              6.012827091137924 AA .
  | Species        4: Confinement radius =              6.000000000000000 AA, multipole_radius_free =              6.015836048499353 AA.
  | Species        4: outer_partition_radius set to              6.015836048499353 AA .
  | Original list of interatomic distances with        1783 x       1783 entries is created.
  | Net number of integration points:  2161040
  | of which are non-zero points    :  1738528
  | Numerical average free-atom electrostatic potential    :     -9.71285826 eV
  Renormalizing the initial density to the exact electron count on the 3D integration grid.
  | Initial density: Formal number of electrons (from input files) :    1040.0000000000
  | Integrated number of electrons on 3D grid     :    1039.9999004365
[...]
  | Total energy evaluation                    :        0.003 s           0.005 s

  Partial memory accounting:
  | Current value for overall tracked memory usage on task 0  :         279.470 MB
  | Peak value for overall tracked memory usage on task 0     :         567.074 MB after allocating temp_ham_ovlp
  | Largest tracked array allocation on task 0 so far         :         143.802 MB  when allocating overlap_matrix
  Note:  These values currently only include a subset of arrays which are explicitly tracked.
  The "true" memory usage will be greater.
------------------------------------------------------------
  |------------------------------------------
  | Final ELSI Output
  |------------------------------------------
  | Number of basis functions :         3624
  | Number of electrons       :       1040.0
  | Number of spins           :            1
  | Number of k-points        :            4
  | Number of states          :          760
  | Solver                    :         ELPA
  | Parallel mode             :   MULTI_PROC
  | Matrix format             :  BLACS_DENSE
  | Matrix sparsity           :        0.096
  |------------------------------------------
  | ELSI Project (c)  elsi-interchange.org
  |------------------------------------------
  Removing unitary transformations (pure translations, rotations) from forces on atoms.
  Atomic forces before filtering:
  | Net force on center of mass :  -0.288606E-02  0.179929E-02  0.389375E-02 eV/A
  Atomic forces after filtering:
  | Net force on center of mass :   0.925482E-15  0.557519E-15  0.178406E-14 eV/A

  Energy and forces in a compact form:
  | Total energy uncorrected      :         -0.617646895358301E+06 eV
  | Total energy corrected        :         -0.617646895358301E+06 eV  <-- do not rely on this value for anything but (periodic) metals
  | Electronic free energy        :         -0.617646895358301E+06 eV
  Total atomic forces (unitary forces cleaned) [eV/Ang]:
  |   1         -0.640610848483237E-01          0.439210238731267E-02         -0.794553153390678E-01
  |   2         -0.299239986355067E-01         -0.576980476348852E-01          0.441040630299467E-02
  |   3         -0.747300014802920E-01         -0.933456333380661E-01          0.671276503514692E-01
  |   4         -0.552488922915410E-01         -0.425025484226445E-01          0.477132292858946E-01
  |   5          0.145452990698970E-01          0.554538455699037E-01          0.541506546102924E-01
  |   6          0.636213049933002E-01         -0.112089362318560E-01          0.753044695636521E-01
  |   7          0.949000673499383E-02          0.539969764714915E-01          0.610696939801061E-01
  |   8          0.572688177112728E-01          0.538553729524117E-01          0.231798500339311E-01
  |   9          0.747397375240977E-01          0.452843321618840E-01          0.162100200197660E-01
  |  10          0.702774441877545E-01         -0.116846835751569E-01         -0.463321369897337E-01
  |  11         -0.244239398554872E-01          0.404458415461716E-01         -0.393227054890957E-01
  |  12         -0.119051618298731E+00         -0.820313320518218E-01         -0.651109452260754E-01
  |  13         -0.540282093667356E-01          0.172194994530712E-01          0.190562738429755E-01
  |  14         -0.136371190203192E-01          0.316022305004823E-01          0.259767157737713E-01
  |  15          0.526584975066101E-01         -0.982321394334735E-01          0.125997724616747E+00
  |  16          0.887643884470779E-01         -0.485017311059624E-01          0.801975141392230E-01
  |  17         -0.574949717507313E-01          0.359704243683771E-01         -0.192665282888911E-01
  |  18         -0.122682140654920E-01          0.124034138434979E-01         -0.158402896570539E-01
  |  19          0.542494627559074E-01          0.716720565920076E-01         -0.919429036032354E-01
  |  20          0.809186238036202E-01          0.163876610135806E-01         -0.135704675293102E-01
  |  21          0.457942680490368E-01         -0.276311733438098E-03         -0.455509927047420E-01
  |  22         -0.707058342868195E-01         -0.180961155021358E-01          0.416503093095780E-02
  |  23          0.603922679265402E-01         -0.589468880287917E-01          0.966713317876748E-01
  |  24          0.606942792084496E-01         -0.908579649767273E-01          0.122329889530315E+00
  |  25          0.320813398930305E-01         -0.465444629132965E-01         -0.484227852982831E-01
  |  26          0.535687981453828E-01         -0.224888887005033E-01         -0.785201416962449E-01
  |  27         -0.184721406590705E-02          0.320527455597099E-01         -0.286504493302246E-01
  |  28          0.229883957826280E-02          0.119691936828949E-01         -0.719431410249661E-01
  |  29          0.321978502842518E-01         -0.172263190856235E-01         -0.103920076958931E+00
  |  30         -0.120770641067003E+00          0.605760158777341E-01          0.468444457760611E-01
  |  31          0.207826608062792E-01          0.272713197835233E-01         -0.499934208753344E-01
  |  32         -0.659042222682214E-01          0.305495532847735E-02          0.630563514352976E-01
  |  33         -0.868363609656401E-01         -0.576948557011754E-02          0.359106855947047E-02
  |  34          0.491795502153720E-01         -0.651938331286378E-02          0.354852972476428E-01
  |  35         -0.268214469793071E-01          0.346898231477949E-01         -0.333925308929214E-01
  |  36         -0.804591782848094E-01          0.660922048840992E-01         -0.397736000204134E-01
  |  37          0.431964310464222E-01          0.523389219285012E-01          0.195098577393993E-01
  |  38         -0.233578679749190E-02          0.707098757200729E-01         -0.259320124751056E-01
  |  39         -0.150948882917720E-01          0.514140307646228E-01          0.486297698305034E-01
  |  40          0.279277775560863E-01          0.628804890282089E-01          0.142696294083367E-01
  |  41         -0.285907002547803E-01          0.276490823351310E-01         -0.268126565165663E-01
  |  42         -0.391922305299429E-01          0.700029671813760E-01         -0.408546820276351E-01
  |  43         -0.369428271645447E-02          0.499719364384409E-02          0.386793058471516E-01
  |  44         -0.822439099640066E-01         -0.825830385316952E-01         -0.735716472347897E-01
  |  45          0.759513215588930E-01         -0.534271332579773E-01         -0.828363057890522E-01
  |  46          0.481084431500141E-01         -0.375510169447490E-02         -0.691491827476514E-01
  |  47         -0.657020450590109E-01          0.301790418759155E-01          0.126541501468326E-01
  |  48         -0.222412885403945E-01         -0.374547731730763E-02          0.174151716524762E-01
  |  49          0.238809676003783E-01          0.644326011771312E-01         -0.589600660407814E-01
  |  50         -0.147938139783631E+00         -0.580512923087616E-02         -0.121927531580181E+00
  |  51         -0.183801048177196E-01         -0.122917307366271E+00         -0.652621104147977E-01
  |  52         -0.774908243749607E-01         -0.137011218130397E-01          0.134854321877022E+00
  |  53         -0.153828549370131E-01          0.243841525035688E-01          0.476648962927938E-01
  |  54          0.557265538295850E-01          0.139204075722775E+00          0.627205098099322E-01
  |  55         -0.410601331212249E-01         -0.348090810902978E-01         -0.109422445492213E+00
  |  56          0.836927300522367E-01         -0.458456750662352E-01          0.230143834810571E-01
  |  57         -0.750318613173168E-01         -0.355908749198580E-01         -0.366081972013044E-01
  |  58         -0.977705017471646E-01          0.466223285816665E-01         -0.316817711286293E-01
  |  59          0.516393138231335E-01         -0.140603296556972E-01         -0.480464210483958E-01
  |  60          0.806906234035430E-02          0.697503714059504E-01         -0.186130093705380E-01
  |  61          0.471304698907248E-01         -0.304821378800975E-01          0.474166774087845E-01
  |  62          0.146314691549190E+00         -0.236206980279189E-01          0.192896335994728E-01
  |  63          0.438467655859623E-02         -0.357543827752962E-02          0.688359395606941E-01
  |  64          0.323599107337090E-02          0.866746356827271E-02         -0.342107035957842E-02
  |  65         -0.579607426486475E+00          0.504651061894758E+00         -0.495301049796226E+00
  |  66         -0.521572935382164E+00          0.412340080082818E+00         -0.531886002663016E+00
  |  67          0.639467698992845E+00         -0.589748010943948E+00         -0.479533244622210E+00
  |  68          0.640826995736887E+00         -0.531195162472965E+00         -0.528296775142946E+00
  |  69          0.626295252389219E+00          0.589304169335230E+00          0.579533169543256E+00
  |  70          0.594089633664191E+00          0.618115413331605E+00          0.623407558546942E+00
  |  71         -0.486556661926344E+00         -0.561143843589789E+00          0.496659865061830E+00
  |  72         -0.533901351492570E+00         -0.566948158678185E+00          0.621949994698961E+00
  |  73         -0.475813842470327E+00         -0.504203432139416E+00          0.624047588819651E+00
  |  74         -0.560742726770191E+00         -0.604547634677583E+00          0.651917314738452E+00
  |  75         -0.610690732079179E+00          0.422917789341624E+00         -0.703761398073683E+00
  |  76         -0.477735220715910E+00          0.466425071786187E+00         -0.627337395769120E+00
  |  77          0.393627721278894E+00          0.651756485280283E+00          0.641921895555572E+00
  |  78          0.698120013157886E+00          0.544314076001648E+00          0.437132292055110E+00
  |  79          0.704133866822926E+00         -0.473940737705535E+00         -0.411027030209955E+00
  |  80          0.528658783139789E+00         -0.586282317176522E+00         -0.511239716344049E+00
  |  81          0.516112206452558E+00         -0.544526214702381E+00         -0.436802191302368E+00
  |  82          0.576867467820381E+00         -0.621541869833659E+00         -0.555772766464698E+00
  |  83         -0.633665198227040E+00         -0.415940593513119E+00          0.598003749991376E+00
  |  84         -0.712970029351266E+00         -0.518202599676159E+00          0.622575377290855E+00
  |  85          0.436988202693865E+00          0.448955432702281E+00          0.461894672959917E+00
  |  86          0.594333019599215E+00          0.501825688484035E+00          0.492083947779172E+00
  |  87         -0.583777036401551E+00          0.568200684150915E+00         -0.563597946499771E+00
  |  88         -0.574706302892557E+00          0.674483191743908E+00         -0.580070413459359E+00
  |  89         -0.562930727644405E+00         -0.594911990594105E+00          0.547582000519947E+00
  |  90         -0.590520372678387E+00         -0.507949308402816E+00          0.669154288672294E+00
  |  91         -0.573878618785472E+00          0.508169715177617E+00         -0.491931822906838E+00
  |  92         -0.531563820998822E+00          0.416217137613081E+00         -0.710385896915518E+00
  |  93          0.619615807185845E+00          0.649341565601322E+00          0.368582700124907E+00
  |  94          0.534030037060513E+00          0.667548264789586E+00          0.465426067862491E+00
  |  95          0.582014567416476E+00         -0.598526304481128E+00         -0.564785562250428E+00
  |  96          0.514132280620120E+00         -0.632272215861598E+00         -0.597949563663106E+00
  |  97          0.120178889024102E+00          0.358841367771290E-01         -0.202833885746922E-01
  |  98          0.829325800887825E-02         -0.796768718639101E-01         -0.512998112940451E-01
  |  99         -0.142256625431578E+00         -0.141906588064873E+00          0.710090667995824E-01
  | 100         -0.136586002404315E-01         -0.328185584060506E-02          0.337294260590328E-01
  | 101          0.103885807703170E-01          0.159339362829273E+00         -0.124236572352093E+00
  | 102         -0.115914068743289E+00          0.117992018208373E+00          0.243559304238178E-01
  | 103          0.439800336200912E-01         -0.207733641683731E+00         -0.284675611227833E-02
  | 104          0.478886161765899E-01          0.114924811955535E+00          0.113994072822276E+00

  ------------------------------------ 
  Start decomposition of the XC Energy 
  ------------------------------------ 
  X and C from original XC functional choice 
  Hartree-Fock Energy :          0.000000000 Ha              0.000000000 eV
  X Energy            :      -1483.600806630 Ha         -40370.831993726 eV
  C Energy            :        -38.670487735 Ha          -1052.277510557 eV
  Total XC Energy     :      -1522.271294365 Ha         -41423.109504282 eV
  ------------------------------------ 
  LDA X and C from self-consistent density 
  X Energy LDA        :      -1372.114749996 Ha         -37337.142040274 eV
  C Energy LDA        :        -78.182538127 Ha          -2127.455106147 eV
  ------------------------------------ 
  End decomposition of the XC Energy 
  ------------------------------------ 

------------------------------------------------------------

------------------------------------------------------------------------------
  Final output of selected total energy values:

  The following output summarizes some interesting total energy values
  at the end of a run (AFTER all relaxation, molecular dynamics, etc.).

  | Total energy of the DFT / Hartree-Fock s.c.f. calculation      :        -617646.895358301 eV
  | Final zero-broadening corrected energy (caution - metals only) :        -617646.895358301 eV
  | For reference only, the value of 1 Hartree used in FHI-aims is :             27.211384500 eV

  Before relying on these values, please be sure to understand exactly which
  total energy value is referred to by a given number. Different objects may
  all carry the same name 'total energy'. Definitions:

  Total energy of the DFT / Hartree-Fock s.c.f. calculation:
  | Note that this energy does not include ANY quantities calculated after the
  | s.c.f. cycle, in particular not ANY RPA, MP2, etc. many-body perturbation terms.

  Final zero-broadening corrected energy:
  | For metallic systems only, a broadening of the occupation numbers at the Fermi
  | level can be extrapolated back to zero broadening by an electron-gas inspired
  | formula. For all systems that are not real metals, this value can be
  | meaningless and should be avoided.

------------------------------------------------------------------------------
  Methods described in the following list of references were used in this FHI-aims run.
  If you publish the results, please make sure to cite these reference if they apply.
  FHI-aims is an academic code, and for our developers (often, Ph.D. students
  and postdocs), scientific credit in the community is essential.
  Thank you for helping us!

  For any use of FHI-aims, please cite:

    Volker Blum, Ralf Gehrke, Felix Hanke, Paula Havu, Ville Havu,
    Xinguo Ren, Karsten Reuter, and Matthias Scheffler
    'Ab initio molecular simulations with numeric atom-centered orbitals'
    Computer Physics Communications 180, 2175-2196 (2009)
    http://dx.doi.org/10.1016/j.cpc.2009.06.022


  The provided symmetry information was generated with SPGlib:

    Atsushi Togo, Yusuke Seto, Dimitar Pashov
    SPGlib 1.7.3 obtained from http://spglib.sourceforge.net
    Copyright (C) 2008 Atsushi Togo


  The scalable eigensolver library ELPA was used in your run.
  ELPA is essential especially for large systems on hundreds or thousands of CPUs.
  For ELPA, please cite:

    Andreas Marek, Volker Blum, Rainer Johanni, Ville Havu, Bruno Lang,
    Thomas Auckenthaler, Alexander Heinecke, Hans-Joachim Bungartz, and Hermann Lederer,
    'The ELPA Library - Scalable Parallel Eigenvalue Solutions
    for Electronic Structure Theory and Computational Science'
    The Journal of Physics: Condensed Matter 26, 213201 (2014).
    http://dx.doi.org/10.1088/0953-8984/26/21/213201


  The ELSI infrastructure was used in your run to solve the Kohn-Sham electronic structure.
  Please check out http://elsi-interchange.org to learn more.
  If scalability is important for your project, please acknowledge ELSI by citing:

    V. W-z. Yu, F. Corsetti, A. Garcia, W. P. Huhn, M. Jacquelin, W. Jia,
    B. Lange, L. Lin, J. Lu, W. Mi, A. Seifitokaldani, A. Vazquez-Mayagoitia,
    C. Yang, H. Yang, and V. Blum
    'ELSI: A unified software interface for Kohn-Sham electronic structure solvers'
    Computer Physics Communications 222, 267-285 (2018).
    http://dx.doi.org/10.1016/j.cpc.2017.09.007


  For the real-space grid partitioning and parallelization used in this calculation, please cite:

    Ville Havu, Volker Blum, Paula Havu, and Matthias Scheffler,
    'Efficient O(N) integration for all-electron electronic structure calculation'
    'using numerically tabulated basis functions'
    Journal of Computational Physics 228, 8367-8379 (2009).
    http://dx.doi.org/10.1016/j.jcp.2009.08.008

  Of course, there are many other important community references, e.g., those cited in the
  above references. Our list is limited to references that describe implementations in the
  FHI-aims code. The reason is purely practical (length of this list) - please credit others as well.

------------------------------------------------------------
          Leaving FHI-aims.
          Date     :  20220704, Time     :  093734.057

          Computational steps:
          | Number of self-consistency cycles          :           21
          | Number of SCF (re)initializations          :            1

          Detailed time accounting                     :  max(cpu_time)    wall_clock(cpu1)
          | Total time                                 :     3857.964 s        3857.941 s
          | Preparation time                           :        0.466 s           0.468 s
          | Boundary condition initalization           :        0.958 s           0.959 s
          | Grid partitioning                          :        4.173 s           4.173 s
          | Preloading free-atom quantities on grid    :        0.035 s           0.035 s
          | Free-atom superposition energy             :        1.823 s           1.823 s
          | Total time for integrations                :      778.127 s         778.072 s
          | Total time for solution of K.-S. equations :       81.154 s          81.149 s
          | Total time for density & force components  :     2370.895 s        2370.719 s
          | Total time for mixing & preconditioning    :      219.655 s         219.740 s
          | Total time for Hartree multipole update    :        0.583 s           0.584 s
          | Total time for Hartree multipole sum       :      386.368 s         386.347 s
          | Total time for total energy evaluation     :        0.012 s           0.027 s

          Partial memory accounting:
          | Residual value for overall tracked memory usage across tasks :           0.000 MB (should be 0.000 MB)
          | Peak values for overall tracked memory usage (after allocating temp_ham_ovlp):
          |   Minimum:      565.683 MB (on task  3)
          |   Maximum:      567.074 MB (on task  1)
          |   Average:      566.100 MB
          | Largest tracked array allocation (overlap_matrix):
          |   Minimum:      143.802 MB (on task  1)
          |   Maximum:      143.802 MB (on task  1)
          |   Average:      143.802 MB
          Note:  These values currently only include a subset of arrays which are explicitly tracked.
          The "true" memory usage will be greater.

          Have a nice day.
------------------------------------------------------------
